<?xml version="1.0" encoding="UTF-8"?>

<!-- generated on 11/27/20 14:49:43 by Eclipse SUMO GUI Version 1.7.0
<configuration xmlns:xsi="http://www.w3.org/2001/XMLSchema-instance" xsi:noNamespaceSchemaLocation="http://sumo.dlr.de/xsd/sumoConfiguration.xsd">

    <input>
        <net-file value="cross.net.xml"/>
        <route-files value="cross.rou.xml"/>
        <additional-files value="cross.add.xml"/>
    </input>

    <output>
        <tripinfo-output value="tripinfo.xml"/>
    </output>

    <time>
        <begin value="0"/>
    </time>

    <report>
        <verbose value="true"/>
        <no-step-log value="true"/>
    </report>

    <traci_server>
        <remote-port value="50689"/>
    </traci_server>

</configuration>
-->

<tripinfos xmlns:xsi="http://www.w3.org/2001/XMLSchema-instance" xsi:noNamespaceSchemaLocation="http://sumo.dlr.de/xsd/tripinfo_file.xsd">
    <tripinfo id="left_0" depart="0.00" departLane="e52o_0" departPos="5.10" departSpeed="0.00" departDelay="0.00" arrival="42.00" arrivalLane="e51i_0" arrivalPos="24.65" arrivalSpeed="14.65" duration="42.00" routeLength="432.85" waitingTime="0.00" waitingCount="0" stopTime="0.00" timeLoss="12.24" rerouteNo="0" devices="tripinfo_left_0" vType="typeWE" speedFactor="1.06" vaporized=""/>
    <tripinfo id="right_2" depart="3.00" departLane="e51o_0" departPos="5.10" departSpeed="0.00" departDelay="0.00" arrival="46.00" arrivalLane="e52i_0" arrivalPos="43.47" arrivalSpeed="13.98" duration="43.00" routeLength="432.86" waitingTime="0.00" waitingCount="0" stopTime="0.00" timeLoss="12.03" rerouteNo="0" devices="tripinfo_right_2" vType="typeWE" speedFactor="1.01" vaporized=""/>
    <tripinfo id="left_1" depart="5.00" departLane="e52o_0" departPos="5.10" departSpeed="0.00" departDelay="3.00" arrival="49.00" arrivalLane="e51i_0" arrivalPos="24.65" arrivalSpeed="12.98" duration="44.00" routeLength="432.85" waitingTime="0.00" waitingCount="0" stopTime="0.00" timeLoss="10.44" rerouteNo="0" devices="tripinfo_left_1" vType="typeWE" speedFactor="0.94" vaporized=""/>
    <tripinfo id="right_3" depart="8.00" departLane="e51o_0" departPos="5.10" departSpeed="0.00" departDelay="4.00" arrival="50.00" arrivalLane="e52i_0" arrivalPos="43.47" arrivalSpeed="15.02" duration="42.00" routeLength="432.86" waitingTime="0.00" waitingCount="0" stopTime="0.00" timeLoss="12.75" rerouteNo="0" devices="tripinfo_right_3" vType="typeWE" speedFactor="1.08" vaporized=""/>
    <tripinfo id="left_4" depart="10.00" departLane="e52o_0" departPos="5.10" departSpeed="0.00" departDelay="4.00" arrival="53.00" arrivalLane="e51i_0" arrivalPos="24.65" arrivalSpeed="13.94" duration="43.00" routeLength="432.85" waitingTime="0.00" waitingCount="0" stopTime="0.00" timeLoss="12.24" rerouteNo="0" devices="tripinfo_left_4" vType="typeWE" speedFactor="1.03" vaporized=""/>
    <tripinfo id="right_5" depart="13.00" departLane="e51o_0" departPos="5.10" departSpeed="0.00" departDelay="4.00" arrival="61.00" arrivalLane="e52i_0" arrivalPos="43.47" arrivalSpeed="11.44" duration="48.00" routeLength="432.86" waitingTime="0.00" waitingCount="0" stopTime="0.00" timeLoss="9.85" rerouteNo="0" devices="tripinfo_right_5" vType="typeWE" speedFactor="0.83" vaporized=""/>
    <tripinfo id="left_6" depart="22.00" departLane="e52o_0" departPos="5.10" departSpeed="0.00" departDelay="0.00" arrival="64.00" arrivalLane="e51i_0" arrivalPos="24.65" arrivalSpeed="14.50" duration="42.00" routeLength="432.85" waitingTime="0.00" waitingCount="0" stopTime="0.00" timeLoss="11.60" rerouteNo="0" devices="tripinfo_left_6" vType="typeWE" speedFactor="1.05" vaporized=""/>
    <tripinfo id="left_7" depart="31.00" departLane="e52o_0" departPos="5.10" departSpeed="0.00" departDelay="0.00" arrival="76.00" arrivalLane="e51i_0" arrivalPos="24.65" arrivalSpeed="12.22" duration="45.00" routeLength="432.85" waitingTime="0.00" waitingCount="0" stopTime="0.00" timeLoss="9.40" rerouteNo="0" devices="tripinfo_left_7" vType="typeWE" speedFactor="0.89" vaporized=""/>
    <tripinfo id="left_8" depart="36.00" departLane="e52o_0" departPos="5.10" departSpeed="0.00" departDelay="3.00" arrival="80.00" arrivalLane="e51i_0" arrivalPos="24.65" arrivalSpeed="12.93" duration="44.00" routeLength="432.85" waitingTime="0.00" waitingCount="0" stopTime="0.00" timeLoss="10.09" rerouteNo="0" devices="tripinfo_left_8" vType="typeWE" speedFactor="0.94" vaporized=""/>
    <tripinfo id="right_10" depart="42.00" departLane="e51o_0" departPos="5.10" departSpeed="0.00" departDelay="0.00" arrival="84.00" arrivalLane="e52i_0" arrivalPos="43.47" arrivalSpeed="14.80" duration="42.00" routeLength="432.86" waitingTime="0.00" waitingCount="0" stopTime="0.00" timeLoss="13.28" rerouteNo="0" devices="tripinfo_right_10" vType="typeWE" speedFactor="1.09" vaporized=""/>
    <tripinfo id="left_9" depart="41.00" departLane="e52o_0" departPos="5.10" departSpeed="0.00" departDelay="0.00" arrival="88.00" arrivalLane="e51i_0" arrivalPos="24.65" arrivalSpeed="11.87" duration="47.00" routeLength="432.85" waitingTime="0.00" waitingCount="0" stopTime="0.00" timeLoss="9.79" rerouteNo="0" devices="tripinfo_left_9" vType="typeWE" speedFactor="0.86" vaporized=""/>
    <tripinfo id="left_11" depart="46.00" departLane="e52o_0" departPos="5.10" departSpeed="0.00" departDelay="1.00" arrival="89.00" arrivalLane="e51i_0" arrivalPos="24.65" arrivalSpeed="12.49" duration="43.00" routeLength="432.85" waitingTime="0.00" waitingCount="0" stopTime="0.00" timeLoss="12.46" rerouteNo="0" devices="tripinfo_left_11" vType="typeWE" speedFactor="1.03" vaporized=""/>
    <tripinfo id="left_12" depart="53.00" departLane="e52o_0" departPos="5.10" departSpeed="0.00" departDelay="0.00" arrival="96.00" arrivalLane="e51i_0" arrivalPos="24.65" arrivalSpeed="14.28" duration="43.00" routeLength="432.85" waitingTime="0.00" waitingCount="0" stopTime="0.00" timeLoss="12.52" rerouteNo="0" devices="tripinfo_left_12" vType="typeWE" speedFactor="1.05" vaporized=""/>
    <tripinfo id="right_13" depart="55.00" departLane="e51o_0" departPos="5.10" departSpeed="0.00" departDelay="0.00" arrival="96.00" arrivalLane="e52i_0" arrivalPos="43.47" arrivalSpeed="15.58" duration="41.00" routeLength="432.86" waitingTime="0.00" waitingCount="0" stopTime="0.00" timeLoss="13.13" rerouteNo="0" devices="tripinfo_right_13" vType="typeWE" speedFactor="1.12" vaporized=""/>
    <tripinfo id="right_14" depart="61.00" departLane="e51o_0" departPos="5.10" departSpeed="0.00" departDelay="0.00" arrival="104.00" arrivalLane="e52i_0" arrivalPos="43.47" arrivalSpeed="13.43" duration="43.00" routeLength="432.86" waitingTime="0.00" waitingCount="0" stopTime="0.00" timeLoss="11.35" rerouteNo="0" devices="tripinfo_right_14" vType="typeWE" speedFactor="0.99" vaporized=""/>
    <tripinfo id="right_15" depart="69.00" departLane="e51o_0" departPos="5.10" departSpeed="0.00" departDelay="0.00" arrival="114.00" arrivalLane="e52i_0" arrivalPos="43.47" arrivalSpeed="12.70" duration="45.00" routeLength="432.86" waitingTime="0.00" waitingCount="0" stopTime="0.00" timeLoss="11.13" rerouteNo="0" devices="tripinfo_right_15" vType="typeWE" speedFactor="0.93" vaporized=""/>
    <tripinfo id="down_18" depart="89.00" departLane="e54o_0" departPos="7.10" departSpeed="0.00" departDelay="0.00" arrival="126.00" arrivalLane="e53i_0" arrivalPos="24.80" arrivalSpeed="12.98" duration="37.00" routeLength="342.61" waitingTime="0.00" waitingCount="0" stopTime="0.00" timeLoss="10.49" rerouteNo="0" devices="tripinfo_down_18" vType="typeNS" speedFactor="0.94" vaporized=""/>
    <tripinfo id="down_19" depart="96.00" departLane="e54o_0" departPos="7.10" departSpeed="0.00" departDelay="0.00" arrival="131.00" arrivalLane="e53i_0" arrivalPos="24.80" arrivalSpeed="15.99" duration="35.00" routeLength="342.61" waitingTime="0.00" waitingCount="0" stopTime="0.00" timeLoss="13.12" rerouteNo="0" devices="tripinfo_down_19" vType="typeNS" speedFactor="1.16" vaporized=""/>
    <tripinfo id="down_24" depart="122.00" departLane="e54o_0" departPos="7.10" departSpeed="0.00" departDelay="0.00" arrival="161.00" arrivalLane="e53i_0" arrivalPos="24.80" arrivalSpeed="11.23" duration="39.00" routeLength="342.61" waitingTime="0.00" waitingCount="0" stopTime="0.00" timeLoss="9.08" rerouteNo="0" devices="tripinfo_down_24" vType="typeNS" speedFactor="0.83" vaporized=""/>
    <tripinfo id="left_17" depart="85.00" departLane="e52o_0" departPos="5.10" departSpeed="0.00" departDelay="0.00" arrival="179.00" arrivalLane="e51i_0" arrivalPos="24.65" arrivalSpeed="12.88" duration="94.00" routeLength="432.85" waitingTime="37.00" waitingCount="1" stopTime="0.00" timeLoss="60.03" rerouteNo="0" devices="tripinfo_left_17" vType="typeWE" speedFactor="0.94" vaporized=""/>
    <tripinfo id="left_21" depart="99.00" departLane="e52o_0" departPos="5.10" departSpeed="0.00" departDelay="0.00" arrival="180.00" arrivalLane="e51i_0" arrivalPos="24.65" arrivalSpeed="13.90" duration="81.00" routeLength="432.85" waitingTime="24.00" waitingCount="1" stopTime="0.00" timeLoss="49.87" rerouteNo="0" devices="tripinfo_left_21" vType="typeWE" speedFactor="1.01" vaporized=""/>
    <tripinfo id="left_26" depart="131.00" departLane="e52o_0" departPos="5.10" departSpeed="0.00" departDelay="0.00" arrival="182.00" arrivalLane="e51i_0" arrivalPos="24.65" arrivalSpeed="12.61" duration="51.00" routeLength="432.85" waitingTime="0.00" waitingCount="0" stopTime="0.00" timeLoss="16.98" rerouteNo="0" devices="tripinfo_left_26" vType="typeWE" speedFactor="0.92" vaporized=""/>
    <tripinfo id="right_16" depart="84.00" departLane="e51o_0" departPos="5.10" departSpeed="0.00" departDelay="0.00" arrival="184.00" arrivalLane="e52i_0" arrivalPos="43.47" arrivalSpeed="12.15" duration="100.00" routeLength="432.86" waitingTime="41.00" waitingCount="1" stopTime="0.00" timeLoss="64.31" rerouteNo="0" devices="tripinfo_right_16" vType="typeWE" speedFactor="0.88" vaporized=""/>
    <tripinfo id="left_27" depart="136.00" departLane="e52o_0" departPos="5.10" departSpeed="0.00" departDelay="1.00" arrival="184.00" arrivalLane="e51i_0" arrivalPos="24.65" arrivalSpeed="13.07" duration="48.00" routeLength="432.85" waitingTime="0.00" waitingCount="0" stopTime="0.00" timeLoss="14.73" rerouteNo="0" devices="tripinfo_left_27" vType="typeWE" speedFactor="0.95" vaporized=""/>
    <tripinfo id="right_20" depart="99.00" departLane="e51o_0" departPos="5.10" departSpeed="0.00" departDelay="0.00" arrival="186.00" arrivalLane="e52i_0" arrivalPos="43.47" arrivalSpeed="12.86" duration="87.00" routeLength="432.86" waitingTime="29.00" waitingCount="1" stopTime="0.00" timeLoss="55.86" rerouteNo="0" devices="tripinfo_right_20" vType="typeWE" speedFactor="1.02" vaporized=""/>
    <tripinfo id="left_28" depart="141.00" departLane="e52o_0" departPos="5.10" departSpeed="0.00" departDelay="3.00" arrival="186.00" arrivalLane="e51i_0" arrivalPos="24.65" arrivalSpeed="14.40" duration="45.00" routeLength="432.85" waitingTime="0.00" waitingCount="0" stopTime="0.00" timeLoss="16.65" rerouteNo="0" devices="tripinfo_left_28" vType="typeWE" speedFactor="1.13" vaporized=""/>
    <tripinfo id="right_22" depart="108.00" departLane="e51o_0" departPos="5.10" departSpeed="0.00" departDelay="0.00" arrival="188.00" arrivalLane="e52i_0" arrivalPos="43.47" arrivalSpeed="13.47" duration="80.00" routeLength="432.86" waitingTime="21.00" waitingCount="1" stopTime="0.00" timeLoss="47.11" rerouteNo="0" devices="tripinfo_right_22" vType="typeWE" speedFactor="0.98" vaporized=""/>
    <tripinfo id="right_23" depart="114.00" departLane="e51o_0" departPos="5.10" departSpeed="0.00" departDelay="0.00" arrival="190.00" arrivalLane="e52i_0" arrivalPos="43.47" arrivalSpeed="11.97" duration="76.00" routeLength="432.86" waitingTime="16.00" waitingCount="1" stopTime="0.00" timeLoss="40.41" rerouteNo="0" devices="tripinfo_right_23" vType="typeWE" speedFactor="0.89" vaporized=""/>
    <tripinfo id="left_29" depart="146.00" departLane="e52o_0" departPos="5.10" departSpeed="0.00" departDelay="4.00" arrival="191.00" arrivalLane="e51i_0" arrivalPos="24.65" arrivalSpeed="12.91" duration="45.00" routeLength="432.85" waitingTime="0.00" waitingCount="0" stopTime="0.00" timeLoss="10.79" rerouteNo="0" devices="tripinfo_left_29" vType="typeWE" speedFactor="0.93" vaporized=""/>
    <tripinfo id="right_25" depart="125.00" departLane="e51o_0" departPos="5.10" departSpeed="0.00" departDelay="0.00" arrival="192.00" arrivalLane="e52i_0" arrivalPos="43.47" arrivalSpeed="11.90" duration="67.00" routeLength="432.86" waitingTime="7.00" waitingCount="1" stopTime="0.00" timeLoss="30.86" rerouteNo="0" devices="tripinfo_right_25" vType="typeWE" speedFactor="0.87" vaporized=""/>
    <tripinfo id="right_30" depart="145.00" departLane="e51o_0" departPos="5.10" departSpeed="0.00" departDelay="0.00" arrival="194.00" arrivalLane="e52i_0" arrivalPos="43.47" arrivalSpeed="12.60" duration="49.00" routeLength="432.86" waitingTime="0.00" waitingCount="0" stopTime="0.00" timeLoss="21.95" rerouteNo="0" devices="tripinfo_right_30" vType="typeWE" speedFactor="1.18" vaporized=""/>
    <tripinfo id="left_31" depart="153.00" departLane="e52o_0" departPos="5.10" departSpeed="0.00" departDelay="0.00" arrival="194.00" arrivalLane="e51i_0" arrivalPos="24.65" arrivalSpeed="15.91" duration="41.00" routeLength="432.85" waitingTime="0.00" waitingCount="0" stopTime="0.00" timeLoss="13.44" rerouteNo="0" devices="tripinfo_left_31" vType="typeWE" speedFactor="1.15" vaporized=""/>
    <tripinfo id="left_32" depart="158.00" departLane="e52o_0" departPos="5.10" departSpeed="0.00" departDelay="2.00" arrival="202.00" arrivalLane="e51i_0" arrivalPos="24.65" arrivalSpeed="13.66" duration="44.00" routeLength="432.85" waitingTime="0.00" waitingCount="0" stopTime="0.00" timeLoss="12.23" rerouteNo="0" devices="tripinfo_left_32" vType="typeWE" speedFactor="1.01" vaporized=""/>
    <tripinfo id="down_39" depart="172.00" departLane="e54o_0" departPos="7.10" departSpeed="0.00" departDelay="0.00" arrival="211.00" arrivalLane="e53i_0" arrivalPos="24.80" arrivalSpeed="12.25" duration="39.00" routeLength="342.61" waitingTime="0.00" waitingCount="0" stopTime="0.00" timeLoss="11.04" rerouteNo="0" devices="tripinfo_down_39" vType="typeNS" speedFactor="0.90" vaporized=""/>
    <tripinfo id="left_33" depart="163.00" departLane="e52o_0" departPos="5.10" departSpeed="0.00" departDelay="3.00" arrival="260.00" arrivalLane="e51i_0" arrivalPos="24.65" arrivalSpeed="15.33" duration="97.00" routeLength="432.85" waitingTime="44.00" waitingCount="1" stopTime="0.00" timeLoss="70.16" rerouteNo="0" devices="tripinfo_left_33" vType="typeWE" speedFactor="1.17" vaporized=""/>
    <tripinfo id="left_34" depart="168.00" departLane="e52o_0" departPos="5.10" departSpeed="0.00" departDelay="4.00" arrival="264.00" arrivalLane="e51i_0" arrivalPos="24.65" arrivalSpeed="13.69" duration="96.00" routeLength="432.85" waitingTime="39.00" waitingCount="1" stopTime="0.00" timeLoss="64.52" rerouteNo="0" devices="tripinfo_left_34" vType="typeWE" speedFactor="0.99" vaporized=""/>
    <tripinfo id="right_35" depart="167.00" departLane="e51o_0" departPos="5.10" departSpeed="0.00" departDelay="0.00" arrival="266.00" arrivalLane="e52i_0" arrivalPos="43.47" arrivalSpeed="14.09" duration="99.00" routeLength="432.86" waitingTime="43.00" waitingCount="1" stopTime="0.00" timeLoss="68.18" rerouteNo="0" devices="tripinfo_right_35" vType="typeWE" speedFactor="1.02" vaporized=""/>
    <tripinfo id="left_37" depart="173.00" departLane="e52o_0" departPos="5.10" departSpeed="0.00" departDelay="4.00" arrival="266.00" arrivalLane="e51i_0" arrivalPos="24.65" arrivalSpeed="15.71" duration="93.00" routeLength="432.85" waitingTime="36.00" waitingCount="1" stopTime="0.00" timeLoss="65.99" rerouteNo="0" devices="tripinfo_left_37" vType="typeWE" speedFactor="1.18" vaporized=""/>
    <tripinfo id="right_36" depart="172.00" departLane="e51o_0" departPos="5.10" departSpeed="0.00" departDelay="4.00" arrival="268.00" arrivalLane="e52i_0" arrivalPos="43.47" arrivalSpeed="13.51" duration="96.00" routeLength="432.86" waitingTime="40.00" waitingCount="1" stopTime="0.00" timeLoss="63.76" rerouteNo="0" devices="tripinfo_right_36" vType="typeWE" speedFactor="0.97" vaporized=""/>
    <tripinfo id="left_38" depart="178.00" departLane="e52o_0" departPos="5.10" departSpeed="0.00" departDelay="6.00" arrival="268.00" arrivalLane="e51i_0" arrivalPos="24.65" arrivalSpeed="15.12" duration="90.00" routeLength="432.85" waitingTime="33.00" waitingCount="1" stopTime="0.00" timeLoss="61.61" rerouteNo="0" devices="tripinfo_left_38" vType="typeWE" speedFactor="1.10" vaporized=""/>
    <tripinfo id="right_40" depart="177.00" departLane="e51o_0" departPos="5.10" departSpeed="0.00" departDelay="1.00" arrival="270.00" arrivalLane="e52i_0" arrivalPos="43.47" arrivalSpeed="14.14" duration="93.00" routeLength="432.86" waitingTime="35.00" waitingCount="1" stopTime="0.00" timeLoss="62.33" rerouteNo="0" devices="tripinfo_right_40" vType="typeWE" speedFactor="1.03" vaporized=""/>
    <tripinfo id="left_43" depart="194.00" departLane="e52o_0" departPos="5.10" departSpeed="0.00" departDelay="0.00" arrival="270.00" arrivalLane="e51i_0" arrivalPos="24.65" arrivalSpeed="14.07" duration="76.00" routeLength="432.85" waitingTime="18.00" waitingCount="1" stopTime="0.00" timeLoss="45.54" rerouteNo="0" devices="tripinfo_left_43" vType="typeWE" speedFactor="1.04" vaporized=""/>
    <tripinfo id="left_44" depart="199.00" departLane="e52o_0" departPos="5.10" departSpeed="0.00" departDelay="3.00" arrival="272.00" arrivalLane="e51i_0" arrivalPos="24.65" arrivalSpeed="14.16" duration="73.00" routeLength="432.85" waitingTime="14.00" waitingCount="1" stopTime="0.00" timeLoss="42.42" rerouteNo="0" devices="tripinfo_left_44" vType="typeWE" speedFactor="1.04" vaporized=""/>
    <tripinfo id="right_41" depart="183.00" departLane="e51o_0" departPos="5.10" departSpeed="0.00" departDelay="2.00" arrival="273.00" arrivalLane="e52i_0" arrivalPos="43.47" arrivalSpeed="13.18" duration="90.00" routeLength="432.86" waitingTime="33.00" waitingCount="1" stopTime="0.00" timeLoss="56.71" rerouteNo="0" devices="tripinfo_right_41" vType="typeWE" speedFactor="0.96" vaporized=""/>
    <tripinfo id="left_45" depart="204.00" departLane="e52o_0" departPos="5.10" departSpeed="0.00" departDelay="5.00" arrival="273.00" arrivalLane="e51i_0" arrivalPos="24.65" arrivalSpeed="14.79" duration="69.00" routeLength="432.85" waitingTime="11.00" waitingCount="1" stopTime="0.00" timeLoss="40.20" rerouteNo="0" devices="tripinfo_left_45" vType="typeWE" speedFactor="1.09" vaporized=""/>
    <tripinfo id="right_42" depart="189.00" departLane="e51o_0" departPos="5.10" departSpeed="0.00" departDelay="6.00" arrival="274.00" arrivalLane="e52i_0" arrivalPos="43.47" arrivalSpeed="14.47" duration="85.00" routeLength="432.86" waitingTime="28.00" waitingCount="1" stopTime="0.00" timeLoss="56.36" rerouteNo="0" devices="tripinfo_right_42" vType="typeWE" speedFactor="1.09" vaporized=""/>
    <tripinfo id="left_47" depart="212.00" departLane="e52o_0" departPos="5.10" departSpeed="0.00" departDelay="0.00" arrival="276.00" arrivalLane="e51i_0" arrivalPos="24.65" arrivalSpeed="12.35" duration="64.00" routeLength="432.85" waitingTime="6.00" waitingCount="1" stopTime="0.00" timeLoss="29.05" rerouteNo="0" devices="tripinfo_left_47" vType="typeWE" speedFactor="0.90" vaporized=""/>
    <tripinfo id="right_46" depart="200.00" departLane="e51o_0" departPos="5.10" departSpeed="0.00" departDelay="0.00" arrival="277.00" arrivalLane="e52i_0" arrivalPos="43.47" arrivalSpeed="13.85" duration="77.00" routeLength="432.86" waitingTime="19.00" waitingCount="1" stopTime="0.00" timeLoss="44.94" rerouteNo="0" devices="tripinfo_right_46" vType="typeWE" speedFactor="1.00" vaporized=""/>
    <tripinfo id="left_49" depart="219.00" departLane="e52o_0" departPos="5.10" departSpeed="0.00" departDelay="0.00" arrival="279.00" arrivalLane="e51i_0" arrivalPos="24.65" arrivalSpeed="11.81" duration="60.00" routeLength="432.85" waitingTime="1.00" waitingCount="1" stopTime="0.00" timeLoss="22.44" rerouteNo="0" devices="tripinfo_left_49" vType="typeWE" speedFactor="0.85" vaporized=""/>
    <tripinfo id="right_48" depart="217.00" departLane="e51o_0" departPos="5.10" departSpeed="0.00" departDelay="0.00" arrival="280.00" arrivalLane="e52i_0" arrivalPos="43.47" arrivalSpeed="11.90" duration="63.00" routeLength="432.86" waitingTime="3.00" waitingCount="1" stopTime="0.00" timeLoss="27.05" rerouteNo="0" devices="tripinfo_right_48" vType="typeWE" speedFactor="0.88" vaporized=""/>
    <tripinfo id="left_51" depart="234.00" departLane="e52o_0" departPos="5.10" departSpeed="0.00" departDelay="0.00" arrival="280.00" arrivalLane="e51i_0" arrivalPos="24.65" arrivalSpeed="12.26" duration="46.00" routeLength="432.85" waitingTime="0.00" waitingCount="0" stopTime="0.00" timeLoss="19.14" rerouteNo="0" devices="tripinfo_left_51" vType="typeWE" speedFactor="1.17" vaporized=""/>
    <tripinfo id="right_50" depart="228.00" departLane="e51o_0" departPos="5.10" departSpeed="0.00" departDelay="0.00" arrival="282.00" arrivalLane="e52i_0" arrivalPos="43.47" arrivalSpeed="11.75" duration="54.00" routeLength="432.86" waitingTime="0.00" waitingCount="0" stopTime="0.00" timeLoss="17.11" rerouteNo="0" devices="tripinfo_right_50" vType="typeWE" speedFactor="0.85" vaporized=""/>
    <tripinfo id="left_52" depart="239.00" departLane="e52o_0" departPos="5.10" departSpeed="0.00" departDelay="1.00" arrival="282.00" arrivalLane="e51i_0" arrivalPos="24.65" arrivalSpeed="13.80" duration="43.00" routeLength="432.85" waitingTime="0.00" waitingCount="0" stopTime="0.00" timeLoss="12.20" rerouteNo="0" devices="tripinfo_left_52" vType="typeWE" speedFactor="1.02" vaporized=""/>
    <tripinfo id="right_53" depart="240.00" departLane="e51o_0" departPos="5.10" departSpeed="0.00" departDelay="0.00" arrival="284.00" arrivalLane="e52i_0" arrivalPos="43.47" arrivalSpeed="13.24" duration="44.00" routeLength="432.86" waitingTime="0.00" waitingCount="0" stopTime="0.00" timeLoss="14.83" rerouteNo="0" devices="tripinfo_right_53" vType="typeWE" speedFactor="1.10" vaporized=""/>
    <tripinfo id="left_54" depart="272.00" departLane="e52o_0" departPos="5.10" departSpeed="0.00" departDelay="0.00" arrival="314.00" arrivalLane="e51i_0" arrivalPos="24.65" arrivalSpeed="13.68" duration="42.00" routeLength="432.85" waitingTime="0.00" waitingCount="0" stopTime="0.00" timeLoss="10.90" rerouteNo="0" devices="tripinfo_left_54" vType="typeWE" speedFactor="1.00" vaporized=""/>
    <tripinfo id="left_55" depart="277.00" departLane="e52o_0" departPos="5.10" departSpeed="0.00" departDelay="2.00" arrival="320.00" arrivalLane="e51i_0" arrivalPos="24.65" arrivalSpeed="13.56" duration="43.00" routeLength="432.85" waitingTime="0.00" waitingCount="0" stopTime="0.00" timeLoss="11.24" rerouteNo="0" devices="tripinfo_left_55" vType="typeWE" speedFactor="1.00" vaporized=""/>
    <tripinfo id="right_56" depart="284.00" departLane="e51o_0" departPos="5.10" departSpeed="0.00" departDelay="0.00" arrival="329.00" arrivalLane="e52i_0" arrivalPos="43.47" arrivalSpeed="12.43" duration="45.00" routeLength="432.86" waitingTime="0.00" waitingCount="0" stopTime="0.00" timeLoss="9.60" rerouteNo="0" devices="tripinfo_right_56" vType="typeWE" speedFactor="0.90" vaporized=""/>
    <tripinfo id="right_57" depart="289.00" departLane="e51o_0" departPos="5.10" departSpeed="0.00" departDelay="3.00" arrival="330.00" arrivalLane="e52i_0" arrivalPos="43.47" arrivalSpeed="13.10" duration="41.00" routeLength="432.86" waitingTime="0.00" waitingCount="0" stopTime="0.00" timeLoss="13.68" rerouteNo="0" devices="tripinfo_right_57" vType="typeWE" speedFactor="1.14" vaporized=""/>
</tripinfos>
