<?xml version="1.0" encoding="UTF-8"?>

<!-- generated on 11/25/20 01:54:23 by Eclipse SUMO GUI Version 1.7.0
<configuration xmlns:xsi="http://www.w3.org/2001/XMLSchema-instance" xsi:noNamespaceSchemaLocation="http://sumo.dlr.de/xsd/sumoConfiguration.xsd">

    <input>
        <net-file value="cross.net.xml"/>
        <route-files value="cross.rou.xml"/>
    </input>

    <output>
        <tripinfo-output value="tripinfo.xml"/>
    </output>

    <time>
        <begin value="0"/>
    </time>

    <report>
        <verbose value="true"/>
        <no-step-log value="true"/>
    </report>

    <traci_server>
        <remote-port value="59640"/>
    </traci_server>

</configuration>
-->

<tripinfos xmlns:xsi="http://www.w3.org/2001/XMLSchema-instance" xsi:noNamespaceSchemaLocation="http://sumo.dlr.de/xsd/tripinfo_file.xsd">
    <tripinfo id="left_0" depart="0.00" departLane="e52o_0" departPos="5.10" departSpeed="0.00" departDelay="0.00" arrival="47.00" arrivalLane="e51i_0" arrivalPos="24.65" arrivalSpeed="14.65" duration="47.00" routeLength="432.86" waitingTime="0.00" waitingCount="0" stopTime="0.00" timeLoss="17.11" rerouteNo="0" devices="tripinfo_left_0" vType="typeWE" speedFactor="1.06" vaporized=""/>
    <tripinfo id="right_2" depart="3.00" departLane="e51o_0" departPos="5.10" departSpeed="0.00" departDelay="0.00" arrival="51.00" arrivalLane="e52i_0" arrivalPos="43.47" arrivalSpeed="13.98" duration="48.00" routeLength="432.87" waitingTime="0.00" waitingCount="0" stopTime="0.00" timeLoss="16.88" rerouteNo="0" devices="tripinfo_right_2" vType="typeWE" speedFactor="1.01" vaporized=""/>
    <tripinfo id="left_1" depart="5.00" departLane="e52o_0" departPos="5.10" departSpeed="0.00" departDelay="3.00" arrival="52.00" arrivalLane="e51i_0" arrivalPos="24.65" arrivalSpeed="13.03" duration="47.00" routeLength="432.86" waitingTime="0.00" waitingCount="0" stopTime="0.00" timeLoss="13.79" rerouteNo="0" devices="tripinfo_left_1" vType="typeWE" speedFactor="0.94" vaporized=""/>
    <tripinfo id="right_3" depart="8.00" departLane="e51o_0" departPos="5.10" departSpeed="0.00" departDelay="4.00" arrival="55.00" arrivalLane="e52i_0" arrivalPos="43.47" arrivalSpeed="15.02" duration="47.00" routeLength="432.87" waitingTime="0.00" waitingCount="0" stopTime="0.00" timeLoss="17.82" rerouteNo="0" devices="tripinfo_right_3" vType="typeWE" speedFactor="1.08" vaporized=""/>
    <tripinfo id="left_4" depart="10.00" departLane="e52o_0" departPos="5.10" departSpeed="0.00" departDelay="4.00" arrival="56.00" arrivalLane="e51i_0" arrivalPos="24.65" arrivalSpeed="14.27" duration="46.00" routeLength="432.86" waitingTime="0.00" waitingCount="0" stopTime="0.00" timeLoss="15.26" rerouteNo="0" devices="tripinfo_left_4" vType="typeWE" speedFactor="1.03" vaporized=""/>
    <tripinfo id="right_5" depart="13.00" departLane="e51o_0" departPos="5.10" departSpeed="0.00" departDelay="4.00" arrival="63.00" arrivalLane="e52i_0" arrivalPos="43.47" arrivalSpeed="11.44" duration="50.00" routeLength="432.87" waitingTime="0.00" waitingCount="0" stopTime="0.00" timeLoss="12.12" rerouteNo="0" devices="tripinfo_right_5" vType="typeWE" speedFactor="0.83" vaporized=""/>
    <tripinfo id="left_6" depart="22.00" departLane="e52o_0" departPos="5.10" departSpeed="0.00" departDelay="0.00" arrival="67.00" arrivalLane="e51i_0" arrivalPos="24.65" arrivalSpeed="14.45" duration="45.00" routeLength="432.86" waitingTime="0.00" waitingCount="0" stopTime="0.00" timeLoss="14.49" rerouteNo="0" devices="tripinfo_left_6" vType="typeWE" speedFactor="1.05" vaporized=""/>
    <tripinfo id="left_7" depart="31.00" departLane="e52o_0" departPos="5.10" departSpeed="0.00" departDelay="0.00" arrival="79.00" arrivalLane="e51i_0" arrivalPos="24.65" arrivalSpeed="12.14" duration="48.00" routeLength="432.86" waitingTime="0.00" waitingCount="0" stopTime="0.00" timeLoss="11.95" rerouteNo="0" devices="tripinfo_left_7" vType="typeWE" speedFactor="0.89" vaporized=""/>
    <tripinfo id="left_8" depart="36.00" departLane="e52o_0" departPos="5.10" departSpeed="0.00" departDelay="3.00" arrival="81.00" arrivalLane="e51i_0" arrivalPos="24.65" arrivalSpeed="12.99" duration="45.00" routeLength="432.86" waitingTime="0.00" waitingCount="0" stopTime="0.00" timeLoss="11.13" rerouteNo="0" devices="tripinfo_left_8" vType="typeWE" speedFactor="0.94" vaporized=""/>
    <tripinfo id="right_10" depart="42.00" departLane="e51o_0" departPos="5.10" departSpeed="0.00" departDelay="0.00" arrival="88.00" arrivalLane="e52i_0" arrivalPos="43.47" arrivalSpeed="14.80" duration="46.00" routeLength="432.87" waitingTime="0.00" waitingCount="0" stopTime="0.00" timeLoss="17.08" rerouteNo="0" devices="tripinfo_right_10" vType="typeWE" speedFactor="1.09" vaporized=""/>
    <tripinfo id="left_9" depart="41.00" departLane="e52o_0" departPos="5.10" departSpeed="0.00" departDelay="0.00" arrival="91.00" arrivalLane="e51i_0" arrivalPos="24.65" arrivalSpeed="11.60" duration="50.00" routeLength="432.86" waitingTime="0.00" waitingCount="0" stopTime="0.00" timeLoss="13.03" rerouteNo="0" devices="tripinfo_left_9" vType="typeWE" speedFactor="0.86" vaporized=""/>
    <tripinfo id="left_11" depart="46.00" departLane="e52o_0" departPos="5.10" departSpeed="0.00" departDelay="1.00" arrival="95.00" arrivalLane="e51i_0" arrivalPos="24.65" arrivalSpeed="14.16" duration="49.00" routeLength="432.86" waitingTime="0.00" waitingCount="0" stopTime="0.00" timeLoss="17.77" rerouteNo="0" devices="tripinfo_left_11" vType="typeWE" speedFactor="1.03" vaporized=""/>
    <tripinfo id="left_12" depart="53.00" departLane="e52o_0" departPos="5.10" departSpeed="0.00" departDelay="0.00" arrival="98.00" arrivalLane="e51i_0" arrivalPos="24.65" arrivalSpeed="14.46" duration="45.00" routeLength="432.86" waitingTime="0.00" waitingCount="0" stopTime="0.00" timeLoss="15.17" rerouteNo="0" devices="tripinfo_left_12" vType="typeWE" speedFactor="1.05" vaporized=""/>
    <tripinfo id="right_13" depart="55.00" departLane="e51o_0" departPos="5.10" departSpeed="0.00" departDelay="0.00" arrival="99.00" arrivalLane="e52i_0" arrivalPos="43.47" arrivalSpeed="15.29" duration="44.00" routeLength="432.87" waitingTime="0.00" waitingCount="0" stopTime="0.00" timeLoss="15.95" rerouteNo="0" devices="tripinfo_right_13" vType="typeWE" speedFactor="1.12" vaporized=""/>
    <tripinfo id="right_14" depart="61.00" departLane="e51o_0" departPos="5.10" departSpeed="0.00" departDelay="0.00" arrival="111.00" arrivalLane="e52i_0" arrivalPos="43.47" arrivalSpeed="13.61" duration="50.00" routeLength="432.87" waitingTime="0.00" waitingCount="0" stopTime="0.00" timeLoss="17.69" rerouteNo="0" devices="tripinfo_right_14" vType="typeWE" speedFactor="0.99" vaporized=""/>
    <tripinfo id="right_15" depart="69.00" departLane="e51o_0" departPos="5.10" departSpeed="0.00" departDelay="0.00" arrival="117.00" arrivalLane="e52i_0" arrivalPos="43.47" arrivalSpeed="12.49" duration="48.00" routeLength="432.87" waitingTime="0.00" waitingCount="0" stopTime="0.00" timeLoss="14.21" rerouteNo="0" devices="tripinfo_right_15" vType="typeWE" speedFactor="0.93" vaporized=""/>
    <tripinfo id="down_18" depart="89.00" departLane="e54o_0" departPos="7.10" departSpeed="0.00" departDelay="0.00" arrival="126.00" arrivalLane="e53i_0" arrivalPos="24.79" arrivalSpeed="12.98" duration="37.00" routeLength="342.61" waitingTime="0.00" waitingCount="0" stopTime="0.00" timeLoss="10.49" rerouteNo="0" devices="tripinfo_down_18" vType="typeNS" speedFactor="0.94" vaporized=""/>
    <tripinfo id="down_19" depart="96.00" departLane="e54o_0" departPos="7.10" departSpeed="0.00" departDelay="0.00" arrival="131.00" arrivalLane="e53i_0" arrivalPos="24.79" arrivalSpeed="15.99" duration="35.00" routeLength="342.61" waitingTime="0.00" waitingCount="0" stopTime="0.00" timeLoss="13.12" rerouteNo="0" devices="tripinfo_down_19" vType="typeNS" speedFactor="1.16" vaporized=""/>
    <tripinfo id="left_17" depart="85.00" departLane="e52o_0" departPos="5.10" departSpeed="0.00" departDelay="0.00" arrival="144.00" arrivalLane="e51i_0" arrivalPos="24.65" arrivalSpeed="12.81" duration="59.00" routeLength="432.86" waitingTime="2.00" waitingCount="1" stopTime="0.00" timeLoss="25.26" rerouteNo="0" devices="tripinfo_left_17" vType="typeWE" speedFactor="0.94" vaporized=""/>
    <tripinfo id="right_16" depart="84.00" departLane="e51o_0" departPos="5.10" departSpeed="0.00" departDelay="0.00" arrival="149.00" arrivalLane="e52i_0" arrivalPos="43.47" arrivalSpeed="11.98" duration="65.00" routeLength="432.87" waitingTime="7.00" waitingCount="1" stopTime="0.00" timeLoss="29.47" rerouteNo="0" devices="tripinfo_right_16" vType="typeWE" speedFactor="0.88" vaporized=""/>
    <tripinfo id="left_21" depart="99.00" departLane="e52o_0" departPos="5.10" departSpeed="0.00" departDelay="0.00" arrival="149.00" arrivalLane="e51i_0" arrivalPos="24.65" arrivalSpeed="13.84" duration="50.00" routeLength="432.86" waitingTime="0.00" waitingCount="0" stopTime="0.00" timeLoss="18.20" rerouteNo="0" devices="tripinfo_left_21" vType="typeWE" speedFactor="1.01" vaporized=""/>
    <tripinfo id="right_20" depart="99.00" departLane="e51o_0" departPos="5.10" departSpeed="0.00" departDelay="0.00" arrival="151.00" arrivalLane="e52i_0" arrivalPos="43.47" arrivalSpeed="13.07" duration="52.00" routeLength="432.87" waitingTime="0.00" waitingCount="0" stopTime="0.00" timeLoss="20.98" rerouteNo="0" devices="tripinfo_right_20" vType="typeWE" speedFactor="1.02" vaporized=""/>
    <tripinfo id="right_22" depart="108.00" departLane="e51o_0" departPos="5.10" departSpeed="0.00" departDelay="0.00" arrival="157.00" arrivalLane="e52i_0" arrivalPos="43.47" arrivalSpeed="13.31" duration="49.00" routeLength="432.87" waitingTime="0.00" waitingCount="0" stopTime="0.00" timeLoss="16.71" rerouteNo="0" devices="tripinfo_right_22" vType="typeWE" speedFactor="0.98" vaporized=""/>
    <tripinfo id="down_24" depart="122.00" departLane="e54o_0" departPos="7.10" departSpeed="0.00" departDelay="0.00" arrival="161.00" arrivalLane="e53i_0" arrivalPos="24.79" arrivalSpeed="11.23" duration="39.00" routeLength="342.61" waitingTime="0.00" waitingCount="0" stopTime="0.00" timeLoss="9.08" rerouteNo="0" devices="tripinfo_down_24" vType="typeNS" speedFactor="0.83" vaporized=""/>
    <tripinfo id="right_23" depart="114.00" departLane="e51o_0" departPos="5.10" departSpeed="0.00" departDelay="0.00" arrival="163.00" arrivalLane="e52i_0" arrivalPos="43.47" arrivalSpeed="12.05" duration="49.00" routeLength="432.87" waitingTime="0.00" waitingCount="0" stopTime="0.00" timeLoss="13.81" rerouteNo="0" devices="tripinfo_right_23" vType="typeWE" speedFactor="0.89" vaporized=""/>
    <tripinfo id="right_25" depart="125.00" departLane="e51o_0" departPos="5.10" departSpeed="0.00" departDelay="0.00" arrival="175.00" arrivalLane="e52i_0" arrivalPos="43.47" arrivalSpeed="11.72" duration="50.00" routeLength="432.87" waitingTime="0.00" waitingCount="0" stopTime="0.00" timeLoss="13.60" rerouteNo="0" devices="tripinfo_right_25" vType="typeWE" speedFactor="0.87" vaporized=""/>
    <tripinfo id="left_26" depart="131.00" departLane="e52o_0" departPos="5.10" departSpeed="0.00" departDelay="0.00" arrival="178.00" arrivalLane="e51i_0" arrivalPos="24.65" arrivalSpeed="12.61" duration="47.00" routeLength="432.86" waitingTime="0.00" waitingCount="0" stopTime="0.00" timeLoss="12.74" rerouteNo="0" devices="tripinfo_left_26" vType="typeWE" speedFactor="0.92" vaporized=""/>
    <tripinfo id="left_27" depart="136.00" departLane="e52o_0" departPos="5.10" departSpeed="0.00" departDelay="1.00" arrival="182.00" arrivalLane="e51i_0" arrivalPos="24.65" arrivalSpeed="13.05" duration="46.00" routeLength="432.86" waitingTime="0.00" waitingCount="0" stopTime="0.00" timeLoss="12.76" rerouteNo="0" devices="tripinfo_left_27" vType="typeWE" speedFactor="0.95" vaporized=""/>
    <tripinfo id="left_28" depart="141.00" departLane="e52o_0" departPos="5.10" departSpeed="0.00" departDelay="3.00" arrival="188.00" arrivalLane="e51i_0" arrivalPos="24.65" arrivalSpeed="15.61" duration="47.00" routeLength="432.86" waitingTime="0.00" waitingCount="0" stopTime="0.00" timeLoss="18.95" rerouteNo="0" devices="tripinfo_left_28" vType="typeWE" speedFactor="1.13" vaporized=""/>
    <tripinfo id="right_30" depart="145.00" departLane="e51o_0" departPos="5.10" departSpeed="0.00" departDelay="0.00" arrival="190.00" arrivalLane="e52i_0" arrivalPos="43.47" arrivalSpeed="16.15" duration="45.00" routeLength="432.87" waitingTime="0.00" waitingCount="0" stopTime="0.00" timeLoss="18.55" rerouteNo="0" devices="tripinfo_right_30" vType="typeWE" speedFactor="1.18" vaporized=""/>
    <tripinfo id="left_29" depart="146.00" departLane="e52o_0" departPos="5.10" departSpeed="0.00" departDelay="4.00" arrival="195.00" arrivalLane="e51i_0" arrivalPos="24.65" arrivalSpeed="12.79" duration="49.00" routeLength="432.86" waitingTime="0.00" waitingCount="0" stopTime="0.00" timeLoss="14.83" rerouteNo="0" devices="tripinfo_left_29" vType="typeWE" speedFactor="0.93" vaporized=""/>
    <tripinfo id="left_31" depart="153.00" departLane="e52o_0" departPos="5.10" departSpeed="0.00" departDelay="0.00" arrival="201.00" arrivalLane="e51i_0" arrivalPos="24.65" arrivalSpeed="16.01" duration="48.00" routeLength="432.86" waitingTime="0.00" waitingCount="0" stopTime="0.00" timeLoss="20.40" rerouteNo="0" devices="tripinfo_left_31" vType="typeWE" speedFactor="1.15" vaporized=""/>
    <tripinfo id="left_32" depart="158.00" departLane="e52o_0" departPos="5.10" departSpeed="0.00" departDelay="2.00" arrival="204.00" arrivalLane="e51i_0" arrivalPos="24.65" arrivalSpeed="13.64" duration="46.00" routeLength="432.86" waitingTime="0.00" waitingCount="0" stopTime="0.00" timeLoss="14.83" rerouteNo="0" devices="tripinfo_left_32" vType="typeWE" speedFactor="1.01" vaporized=""/>
    <tripinfo id="left_33" depart="163.00" departLane="e52o_0" departPos="5.10" departSpeed="0.00" departDelay="3.00" arrival="207.00" arrivalLane="e51i_0" arrivalPos="24.65" arrivalSpeed="16.15" duration="44.00" routeLength="432.86" waitingTime="0.00" waitingCount="0" stopTime="0.00" timeLoss="17.09" rerouteNo="0" devices="tripinfo_left_33" vType="typeWE" speedFactor="1.17" vaporized=""/>
    <tripinfo id="down_39" depart="172.00" departLane="e54o_0" departPos="7.10" departSpeed="0.00" departDelay="0.00" arrival="211.00" arrivalLane="e53i_0" arrivalPos="24.79" arrivalSpeed="12.25" duration="39.00" routeLength="342.61" waitingTime="0.00" waitingCount="0" stopTime="0.00" timeLoss="11.04" rerouteNo="0" devices="tripinfo_down_39" vType="typeNS" speedFactor="0.90" vaporized=""/>
    <tripinfo id="left_34" depart="168.00" departLane="e52o_0" departPos="5.10" departSpeed="0.00" departDelay="4.00" arrival="213.00" arrivalLane="e51i_0" arrivalPos="24.65" arrivalSpeed="13.45" duration="45.00" routeLength="432.86" waitingTime="0.00" waitingCount="0" stopTime="0.00" timeLoss="13.59" rerouteNo="0" devices="tripinfo_left_34" vType="typeWE" speedFactor="0.99" vaporized=""/>
    <tripinfo id="left_37" depart="173.00" departLane="e52o_0" departPos="5.10" departSpeed="0.00" departDelay="4.00" arrival="220.00" arrivalLane="e51i_0" arrivalPos="24.65" arrivalSpeed="16.05" duration="47.00" routeLength="432.86" waitingTime="0.00" waitingCount="0" stopTime="0.00" timeLoss="19.68" rerouteNo="0" devices="tripinfo_left_37" vType="typeWE" speedFactor="1.18" vaporized=""/>
    <tripinfo id="right_35" depart="167.00" departLane="e51o_0" departPos="5.10" departSpeed="0.00" departDelay="0.00" arrival="226.00" arrivalLane="e52i_0" arrivalPos="43.47" arrivalSpeed="14.09" duration="59.00" routeLength="432.87" waitingTime="3.00" waitingCount="1" stopTime="0.00" timeLoss="27.50" rerouteNo="0" devices="tripinfo_right_35" vType="typeWE" speedFactor="1.02" vaporized=""/>
    <tripinfo id="left_38" depart="178.00" departLane="e52o_0" departPos="5.10" departSpeed="0.00" departDelay="6.00" arrival="226.00" arrivalLane="e51i_0" arrivalPos="24.65" arrivalSpeed="15.31" duration="48.00" routeLength="432.86" waitingTime="0.00" waitingCount="0" stopTime="0.00" timeLoss="18.98" rerouteNo="0" devices="tripinfo_left_38" vType="typeWE" speedFactor="1.10" vaporized=""/>
    <tripinfo id="right_36" depart="172.00" departLane="e51o_0" departPos="5.10" departSpeed="0.00" departDelay="4.00" arrival="228.00" arrivalLane="e52i_0" arrivalPos="43.47" arrivalSpeed="13.38" duration="56.00" routeLength="432.87" waitingTime="0.00" waitingCount="0" stopTime="0.00" timeLoss="23.40" rerouteNo="0" devices="tripinfo_right_36" vType="typeWE" speedFactor="0.97" vaporized=""/>
    <tripinfo id="right_40" depart="177.00" departLane="e51o_0" departPos="5.10" departSpeed="0.00" departDelay="1.00" arrival="230.00" arrivalLane="e52i_0" arrivalPos="43.47" arrivalSpeed="14.20" duration="53.00" routeLength="432.87" waitingTime="0.00" waitingCount="0" stopTime="0.00" timeLoss="21.98" rerouteNo="0" devices="tripinfo_right_40" vType="typeWE" speedFactor="1.03" vaporized=""/>
    <tripinfo id="right_41" depart="183.00" departLane="e51o_0" departPos="5.10" departSpeed="0.00" departDelay="2.00" arrival="232.00" arrivalLane="e52i_0" arrivalPos="43.47" arrivalSpeed="13.08" duration="49.00" routeLength="432.87" waitingTime="0.00" waitingCount="0" stopTime="0.00" timeLoss="16.04" rerouteNo="0" devices="tripinfo_right_41" vType="typeWE" speedFactor="0.96" vaporized=""/>
    <tripinfo id="right_42" depart="189.00" departLane="e51o_0" departPos="5.10" departSpeed="0.00" departDelay="6.00" arrival="236.00" arrivalLane="e52i_0" arrivalPos="43.47" arrivalSpeed="14.94" duration="47.00" routeLength="432.87" waitingTime="0.00" waitingCount="0" stopTime="0.00" timeLoss="18.21" rerouteNo="0" devices="tripinfo_right_42" vType="typeWE" speedFactor="1.09" vaporized=""/>
    <tripinfo id="left_43" depart="194.00" departLane="e52o_0" departPos="5.10" departSpeed="0.00" departDelay="0.00" arrival="242.00" arrivalLane="e51i_0" arrivalPos="24.65" arrivalSpeed="14.22" duration="48.00" routeLength="432.86" waitingTime="0.00" waitingCount="0" stopTime="0.00" timeLoss="17.54" rerouteNo="0" devices="tripinfo_left_43" vType="typeWE" speedFactor="1.04" vaporized=""/>
    <tripinfo id="left_44" depart="199.00" departLane="e52o_0" departPos="5.10" departSpeed="0.00" departDelay="3.00" arrival="245.00" arrivalLane="e51i_0" arrivalPos="24.65" arrivalSpeed="14.28" duration="46.00" routeLength="432.86" waitingTime="0.00" waitingCount="0" stopTime="0.00" timeLoss="16.01" rerouteNo="0" devices="tripinfo_left_44" vType="typeWE" speedFactor="1.04" vaporized=""/>
    <tripinfo id="right_46" depart="200.00" departLane="e51o_0" departPos="5.10" departSpeed="0.00" departDelay="0.00" arrival="248.00" arrivalLane="e52i_0" arrivalPos="43.47" arrivalSpeed="13.79" duration="48.00" routeLength="432.87" waitingTime="0.00" waitingCount="0" stopTime="0.00" timeLoss="16.44" rerouteNo="0" devices="tripinfo_right_46" vType="typeWE" speedFactor="1.00" vaporized=""/>
    <tripinfo id="left_45" depart="204.00" departLane="e52o_0" departPos="5.10" departSpeed="0.00" departDelay="5.00" arrival="252.00" arrivalLane="e51i_0" arrivalPos="24.65" arrivalSpeed="15.07" duration="48.00" routeLength="432.86" waitingTime="0.00" waitingCount="0" stopTime="0.00" timeLoss="18.55" rerouteNo="0" devices="tripinfo_left_45" vType="typeWE" speedFactor="1.09" vaporized=""/>
    <tripinfo id="left_47" depart="212.00" departLane="e52o_0" departPos="5.10" departSpeed="0.00" departDelay="0.00" arrival="262.00" arrivalLane="e51i_0" arrivalPos="24.65" arrivalSpeed="12.19" duration="50.00" routeLength="432.86" waitingTime="0.00" waitingCount="0" stopTime="0.00" timeLoss="15.18" rerouteNo="0" devices="tripinfo_left_47" vType="typeWE" speedFactor="0.90" vaporized=""/>
    <tripinfo id="right_48" depart="217.00" departLane="e51o_0" departPos="5.10" departSpeed="0.00" departDelay="0.00" arrival="266.00" arrivalLane="e52i_0" arrivalPos="43.47" arrivalSpeed="11.85" duration="49.00" routeLength="432.87" waitingTime="0.00" waitingCount="0" stopTime="0.00" timeLoss="13.07" rerouteNo="0" devices="tripinfo_right_48" vType="typeWE" speedFactor="0.88" vaporized=""/>
    <tripinfo id="left_49" depart="219.00" departLane="e52o_0" departPos="5.10" departSpeed="0.00" departDelay="0.00" arrival="270.00" arrivalLane="e51i_0" arrivalPos="24.65" arrivalSpeed="11.65" duration="51.00" routeLength="432.86" waitingTime="0.00" waitingCount="0" stopTime="0.00" timeLoss="13.88" rerouteNo="0" devices="tripinfo_left_49" vType="typeWE" speedFactor="0.85" vaporized=""/>
    <tripinfo id="right_50" depart="228.00" departLane="e51o_0" departPos="5.10" departSpeed="0.00" departDelay="0.00" arrival="278.00" arrivalLane="e52i_0" arrivalPos="43.47" arrivalSpeed="11.60" duration="50.00" routeLength="432.87" waitingTime="0.00" waitingCount="0" stopTime="0.00" timeLoss="13.14" rerouteNo="0" devices="tripinfo_right_50" vType="typeWE" speedFactor="0.85" vaporized=""/>
    <tripinfo id="left_51" depart="234.00" departLane="e52o_0" departPos="5.10" departSpeed="0.00" departDelay="0.00" arrival="279.00" arrivalLane="e51i_0" arrivalPos="24.65" arrivalSpeed="15.86" duration="45.00" routeLength="432.86" waitingTime="0.00" waitingCount="0" stopTime="0.00" timeLoss="17.83" rerouteNo="0" devices="tripinfo_left_51" vType="typeWE" speedFactor="1.17" vaporized=""/>
    <tripinfo id="left_52" depart="239.00" departLane="e52o_0" departPos="5.10" departSpeed="0.00" departDelay="1.00" arrival="286.00" arrivalLane="e51i_0" arrivalPos="24.65" arrivalSpeed="14.05" duration="47.00" routeLength="432.86" waitingTime="0.00" waitingCount="0" stopTime="0.00" timeLoss="15.74" rerouteNo="0" devices="tripinfo_left_52" vType="typeWE" speedFactor="1.02" vaporized=""/>
    <tripinfo id="right_53" depart="240.00" departLane="e51o_0" departPos="5.10" departSpeed="0.00" departDelay="0.00" arrival="288.00" arrivalLane="e52i_0" arrivalPos="43.47" arrivalSpeed="15.12" duration="48.00" routeLength="432.87" waitingTime="0.00" waitingCount="0" stopTime="0.00" timeLoss="19.04" rerouteNo="0" devices="tripinfo_right_53" vType="typeWE" speedFactor="1.10" vaporized=""/>
    <tripinfo id="left_54" depart="272.00" departLane="e52o_0" departPos="5.10" departSpeed="0.00" departDelay="0.00" arrival="317.00" arrivalLane="e51i_0" arrivalPos="24.65" arrivalSpeed="13.61" duration="45.00" routeLength="432.86" waitingTime="0.00" waitingCount="0" stopTime="0.00" timeLoss="13.30" rerouteNo="0" devices="tripinfo_left_54" vType="typeWE" speedFactor="1.00" vaporized=""/>
    <tripinfo id="left_55" depart="277.00" departLane="e52o_0" departPos="5.10" departSpeed="0.00" departDelay="2.00" arrival="325.00" arrivalLane="e51i_0" arrivalPos="24.65" arrivalSpeed="13.83" duration="48.00" routeLength="432.86" waitingTime="0.00" waitingCount="0" stopTime="0.00" timeLoss="16.45" rerouteNo="0" devices="tripinfo_left_55" vType="typeWE" speedFactor="1.00" vaporized=""/>
    <tripinfo id="right_56" depart="284.00" departLane="e51o_0" departPos="5.10" departSpeed="0.00" departDelay="0.00" arrival="331.00" arrivalLane="e52i_0" arrivalPos="43.47" arrivalSpeed="12.43" duration="47.00" routeLength="432.87" waitingTime="0.00" waitingCount="0" stopTime="0.00" timeLoss="12.18" rerouteNo="0" devices="tripinfo_right_56" vType="typeWE" speedFactor="0.90" vaporized=""/>
    <tripinfo id="right_57" depart="289.00" departLane="e51o_0" departPos="5.10" departSpeed="0.00" departDelay="3.00" arrival="334.00" arrivalLane="e52i_0" arrivalPos="43.47" arrivalSpeed="15.57" duration="45.00" routeLength="432.87" waitingTime="0.00" waitingCount="0" stopTime="0.00" timeLoss="17.04" rerouteNo="0" devices="tripinfo_right_57" vType="typeWE" speedFactor="1.14" vaporized=""/>
    <tripinfo id="right_58" depart="294.00" departLane="e51o_0" departPos="5.10" departSpeed="0.00" departDelay="6.00" arrival="341.00" arrivalLane="e52i_0" arrivalPos="43.47" arrivalSpeed="14.16" duration="47.00" routeLength="432.87" waitingTime="0.00" waitingCount="0" stopTime="0.00" timeLoss="15.93" rerouteNo="0" devices="tripinfo_right_58" vType="typeWE" speedFactor="1.02" vaporized=""/>
    <tripinfo id="right_59" depart="299.00" departLane="e51o_0" departPos="5.10" departSpeed="0.00" departDelay="8.00" arrival="345.00" arrivalLane="e52i_0" arrivalPos="43.47" arrivalSpeed="13.35" duration="46.00" routeLength="432.87" waitingTime="0.00" waitingCount="0" stopTime="0.00" timeLoss="13.54" rerouteNo="0" devices="tripinfo_right_59" vType="typeWE" speedFactor="0.97" vaporized=""/>
    <tripinfo id="right_60" depart="304.00" departLane="e51o_0" departPos="5.10" departSpeed="0.00" departDelay="10.00" arrival="349.00" arrivalLane="e52i_0" arrivalPos="43.47" arrivalSpeed="14.93" duration="45.00" routeLength="432.87" waitingTime="0.00" waitingCount="0" stopTime="0.00" timeLoss="15.23" rerouteNo="0" devices="tripinfo_right_60" vType="typeWE" speedFactor="1.08" vaporized=""/>
    <tripinfo id="down_61" depart="318.00" departLane="e54o_0" departPos="7.10" departSpeed="0.00" departDelay="0.00" arrival="353.00" arrivalLane="e53i_0" arrivalPos="24.79" arrivalSpeed="15.17" duration="35.00" routeLength="342.61" waitingTime="0.00" waitingCount="0" stopTime="0.00" timeLoss="12.65" rerouteNo="0" devices="tripinfo_down_61" vType="typeNS" speedFactor="1.12" vaporized=""/>
    <tripinfo id="right_62" depart="322.00" departLane="e51o_0" departPos="5.10" departSpeed="0.00" departDelay="0.00" arrival="368.00" arrivalLane="e52i_0" arrivalPos="43.47" arrivalSpeed="14.00" duration="46.00" routeLength="432.87" waitingTime="0.00" waitingCount="0" stopTime="0.00" timeLoss="14.71" rerouteNo="0" devices="tripinfo_right_62" vType="typeWE" speedFactor="1.02" vaporized=""/>
    <tripinfo id="down_63" depart="331.00" departLane="e54o_0" departPos="7.10" departSpeed="0.00" departDelay="0.00" arrival="369.00" arrivalLane="e53i_0" arrivalPos="24.79" arrivalSpeed="13.60" duration="38.00" routeLength="342.61" waitingTime="0.00" waitingCount="0" stopTime="0.00" timeLoss="12.03" rerouteNo="0" devices="tripinfo_down_63" vType="typeNS" speedFactor="0.99" vaporized=""/>
    <tripinfo id="down_64" depart="337.00" departLane="e54o_0" departPos="7.10" departSpeed="0.00" departDelay="0.00" arrival="375.00" arrivalLane="e53i_0" arrivalPos="24.79" arrivalSpeed="12.86" duration="38.00" routeLength="342.61" waitingTime="0.00" waitingCount="0" stopTime="0.00" timeLoss="11.13" rerouteNo="0" devices="tripinfo_down_64" vType="typeNS" speedFactor="0.94" vaporized=""/>
    <tripinfo id="down_68" depart="344.00" departLane="e54o_0" departPos="7.10" departSpeed="0.00" departDelay="0.00" arrival="380.00" arrivalLane="e53i_0" arrivalPos="24.79" arrivalSpeed="14.18" duration="36.00" routeLength="342.61" waitingTime="0.00" waitingCount="0" stopTime="0.00" timeLoss="12.17" rerouteNo="0" devices="tripinfo_down_68" vType="typeNS" speedFactor="1.04" vaporized=""/>
    <tripinfo id="left_65" depart="339.00" departLane="e52o_0" departPos="5.10" departSpeed="0.00" departDelay="0.00" arrival="388.00" arrivalLane="e51i_0" arrivalPos="24.65" arrivalSpeed="12.18" duration="49.00" routeLength="432.86" waitingTime="0.00" waitingCount="0" stopTime="0.00" timeLoss="13.02" rerouteNo="0" devices="tripinfo_left_65" vType="typeWE" speedFactor="0.88" vaporized=""/>
    <tripinfo id="left_67" depart="345.00" departLane="e52o_0" departPos="5.10" departSpeed="0.00" departDelay="1.00" arrival="392.00" arrivalLane="e51i_0" arrivalPos="24.65" arrivalSpeed="12.50" duration="47.00" routeLength="432.86" waitingTime="0.00" waitingCount="0" stopTime="0.00" timeLoss="12.15" rerouteNo="0" devices="tripinfo_left_67" vType="typeWE" speedFactor="0.91" vaporized=""/>
    <tripinfo id="right_66" depart="342.00" departLane="e51o_0" departPos="5.10" departSpeed="0.00" departDelay="0.00" arrival="395.00" arrivalLane="e52i_0" arrivalPos="43.47" arrivalSpeed="12.20" duration="53.00" routeLength="432.87" waitingTime="0.00" waitingCount="0" stopTime="0.00" timeLoss="18.64" rerouteNo="0" devices="tripinfo_right_66" vType="typeWE" speedFactor="0.91" vaporized=""/>
    <tripinfo id="left_69" depart="350.00" departLane="e52o_0" departPos="5.10" departSpeed="0.00" departDelay="4.00" arrival="397.00" arrivalLane="e51i_0" arrivalPos="24.65" arrivalSpeed="14.18" duration="47.00" routeLength="432.86" waitingTime="0.00" waitingCount="0" stopTime="0.00" timeLoss="16.27" rerouteNo="0" devices="tripinfo_left_69" vType="typeWE" speedFactor="1.02" vaporized=""/>
    <tripinfo id="right_70" depart="354.00" departLane="e51o_0" departPos="5.10" departSpeed="0.00" departDelay="0.00" arrival="401.00" arrivalLane="e52i_0" arrivalPos="43.47" arrivalSpeed="14.17" duration="47.00" routeLength="432.87" waitingTime="0.00" waitingCount="0" stopTime="0.00" timeLoss="15.97" rerouteNo="0" devices="tripinfo_right_70" vType="typeWE" speedFactor="1.02" vaporized=""/>
    <tripinfo id="down_72" depart="377.00" departLane="e54o_0" departPos="7.10" departSpeed="0.00" departDelay="0.00" arrival="415.00" arrivalLane="e53i_0" arrivalPos="24.79" arrivalSpeed="12.76" duration="38.00" routeLength="342.61" waitingTime="0.00" waitingCount="0" stopTime="0.00" timeLoss="11.01" rerouteNo="0" devices="tripinfo_down_72" vType="typeNS" speedFactor="0.94" vaporized=""/>
    <tripinfo id="down_73" depart="383.00" departLane="e54o_0" departPos="7.10" departSpeed="0.00" departDelay="4.00" arrival="420.00" arrivalLane="e53i_0" arrivalPos="24.79" arrivalSpeed="14.53" duration="37.00" routeLength="342.61" waitingTime="0.00" waitingCount="0" stopTime="0.00" timeLoss="12.67" rerouteNo="0" devices="tripinfo_down_73" vType="typeNS" speedFactor="1.06" vaporized=""/>
    <tripinfo id="down_80" depart="397.00" departLane="e54o_0" departPos="7.10" departSpeed="0.00" departDelay="0.00" arrival="433.00" arrivalLane="e53i_0" arrivalPos="24.79" arrivalSpeed="14.36" duration="36.00" routeLength="342.61" waitingTime="0.00" waitingCount="0" stopTime="0.00" timeLoss="11.69" rerouteNo="0" devices="tripinfo_down_80" vType="typeNS" speedFactor="1.03" vaporized=""/>