<?xml version="1.0" encoding="UTF-8"?>

<!-- generated on 01/26/21 17:50:58 by Eclipse SUMO GUI Version 1.7.0
<configuration xmlns:xsi="http://www.w3.org/2001/XMLSchema-instance" xsi:noNamespaceSchemaLocation="http://sumo.dlr.de/xsd/sumoConfiguration.xsd">

    <input>
        <net-file value="case1.net.xml"/>
        <route-files value="case1.rou.xml"/>
        <additional-files value="case1.add.xml"/>
    </input>

    <output>
        <emission-output value="emissionOutput.xml"/>
        <tripinfo-output value="tripinfo.xml"/>
    </output>

    <processing>
        <ignore-route-errors value="true"/>
    </processing>

    <traci_server>
        <remote-port value="62167"/>
    </traci_server>

</configuration>
-->

<meandata xmlns:xsi="http://www.w3.org/2001/XMLSchema-instance" xsi:noNamespaceSchemaLocation="http://sumo.dlr.de/xsd/meandata_file.xsd">
    <interval begin="0.00" end="75.00" id="edgeDetector">
        <edge id="-gneE1" sampledSeconds="6.43" CO_abs="0" CO2_abs="0" HC_abs="0" PMx_abs="0" NOx_abs="0" fuel_abs="0" electricity_abs="0"
            CO_normed="0" CO2_normed="0" HC_normed="0" PMx_normed="0" NOx_normed="0" fuel_normed="0" electricity_normed="0"
            traveltime="6.08" CO_perVeh="0" CO2_perVeh="0" HC_perVeh="0" PMx_perVeh="0" NOx_perVeh="0" fuel_perVeh="0" electricity_perVeh="0"/>
        <edge id="-gneE118" sampledSeconds="9.86" CO_abs="0" CO2_abs="0" HC_abs="0" PMx_abs="0" NOx_abs="0" fuel_abs="0" electricity_abs="0"
            CO_normed="0" CO2_normed="0" HC_normed="0" PMx_normed="0" NOx_normed="0" fuel_normed="0" electricity_normed="0"
            traveltime="9.87" CO_perVeh="0" CO2_perVeh="0" HC_perVeh="0" PMx_perVeh="0" NOx_perVeh="0" fuel_perVeh="0" electricity_perVeh="0"/>
        <edge id="-gneE2" sampledSeconds="6.44" CO_abs="0" CO2_abs="0" HC_abs="0" PMx_abs="0" NOx_abs="0" fuel_abs="0" electricity_abs="0"
            CO_normed="0" CO2_normed="0" HC_normed="0" PMx_normed="0" NOx_normed="0" fuel_normed="0" electricity_normed="0"
            traveltime="6.08" CO_perVeh="0" CO2_perVeh="0" HC_perVeh="0" PMx_perVeh="0" NOx_perVeh="0" fuel_perVeh="0" electricity_perVeh="0"/>
        <edge id="-gneE5" sampledSeconds="6.32" CO_abs="0" CO2_abs="0" HC_abs="0" PMx_abs="0" NOx_abs="0" fuel_abs="0" electricity_abs="0"
            CO_normed="0" CO2_normed="0" HC_normed="0" PMx_normed="0" NOx_normed="0" fuel_normed="0" electricity_normed="0"
            traveltime="5.97" CO_perVeh="0" CO2_perVeh="0" HC_perVeh="0" PMx_perVeh="0" NOx_perVeh="0" fuel_perVeh="0" electricity_perVeh="0"/>
        <edge id="gneE104" sampledSeconds="4.00" CO_abs="536.127265" CO2_abs="19905.212119" HC_abs="2.911628" PMx_abs="0.412243" NOx_abs="8.687000" fuel_abs="8.556487" electricity_abs="0"
            CO_normed="287.211035" CO2_normed="10663.506492" HC_normed="1.559801" PMx_normed="0.220845" NOx_normed="4.653750" fuel_normed="4.583832" electricity_normed="0"
            traveltime="17.08" CO_perVeh="2289.193207" CO2_perVeh="84992.648905" HC_perVeh="12.432269" PMx_perVeh="1.760225" NOx_perVeh="37.092353" fuel_perVeh="36.535079" electricity_perVeh="0"/>
        <edge id="gneE107" sampledSeconds="6.57" CO_abs="0" CO2_abs="0" HC_abs="0" PMx_abs="0" NOx_abs="0" fuel_abs="0" electricity_abs="0"
            CO_normed="0" CO2_normed="0" HC_normed="0" PMx_normed="0" NOx_normed="0" fuel_normed="0" electricity_normed="0"
            traveltime="6.21" CO_perVeh="0" CO2_perVeh="0" HC_perVeh="0" PMx_perVeh="0" NOx_perVeh="0" fuel_perVeh="0" electricity_perVeh="0"/>
        <edge id="gneE62" sampledSeconds="6.40" CO_abs="0" CO2_abs="0" HC_abs="0" PMx_abs="0" NOx_abs="0" fuel_abs="0" electricity_abs="0"
            CO_normed="0" CO2_normed="0" HC_normed="0" PMx_normed="0" NOx_normed="0" fuel_normed="0" electricity_normed="0"
            traveltime="6.04" CO_perVeh="0" CO2_perVeh="0" HC_perVeh="0" PMx_perVeh="0" NOx_perVeh="0" fuel_perVeh="0" electricity_perVeh="0"/>
        <edge id="gneE63" sampledSeconds="7.32" CO_abs="0" CO2_abs="0" HC_abs="0" PMx_abs="0" NOx_abs="0" fuel_abs="0" electricity_abs="0"
            CO_normed="0" CO2_normed="0" HC_normed="0" PMx_normed="0" NOx_normed="0" fuel_normed="0" electricity_normed="0"
            traveltime="6.92" CO_perVeh="0" CO2_perVeh="0" HC_perVeh="0" PMx_perVeh="0" NOx_perVeh="0" fuel_perVeh="0" electricity_perVeh="0"/>
        <edge id="gneE64" sampledSeconds="2.62" CO_abs="0" CO2_abs="0" HC_abs="0" PMx_abs="0" NOx_abs="0" fuel_abs="0" electricity_abs="0"
            CO_normed="0" CO2_normed="0" HC_normed="0" PMx_normed="0" NOx_normed="0" fuel_normed="0" electricity_normed="0"
            traveltime="8.64" CO_perVeh="0" CO2_perVeh="0" HC_perVeh="0" PMx_perVeh="0" NOx_perVeh="0" fuel_perVeh="0" electricity_perVeh="0"/>
        <edge id="gneE91" sampledSeconds="6.28" CO_abs="0" CO2_abs="0" HC_abs="0" PMx_abs="0" NOx_abs="0" fuel_abs="0" electricity_abs="0"
            CO_normed="0" CO2_normed="0" HC_normed="0" PMx_normed="0" NOx_normed="0" fuel_normed="0" electricity_normed="0"
            traveltime="5.94" CO_perVeh="0" CO2_perVeh="0" HC_perVeh="0" PMx_perVeh="0" NOx_perVeh="0" fuel_perVeh="0" electricity_perVeh="0"/>
    </interval>
    <interval begin="75.00" end="150.00" id="edgeDetector">
        <edge id="-gneE119" sampledSeconds="10.24" CO_abs="954.299242" CO2_abs="47912.553205" HC_abs="5.476940" PMx_abs="0.915738" NOx_abs="20.162536" fuel_abs="20.595624" electricity_abs="0"
            CO_normed="493.603056" CO2_normed="24782.355106" HC_normed="2.832900" PMx_normed="0.473658" NOx_normed="10.428898" fuel_normed="10.652909" electricity_normed="0"
            traveltime="10.25" CO_perVeh="955.328691" CO2_perVeh="47964.238807" HC_perVeh="5.482848" PMx_perVeh="0.916726" NOx_perVeh="20.184286" fuel_perVeh="20.617842" electricity_perVeh="0"/>
        <edge id="-gneE13" sampledSeconds="3.72" CO_abs="246.850958" CO2_abs="16409.234806" HC_abs="1.512732" PMx_abs="0.306125" NOx_abs="6.846055" fuel_abs="7.053595" electricity_abs="0"
            CO_normed="138.421098" CO2_normed="9201.440078" HC_normed="0.848261" PMx_normed="0.171659" NOx_normed="3.838909" fuel_normed="3.955287" electricity_normed="0"
            traveltime="7.58" CO_perVeh="502.590470" CO2_perVeh="33409.329627" HC_perVeh="3.079934" PMx_perVeh="0.623273" NOx_perVeh="13.938621" fuel_perVeh="14.361175" electricity_perVeh="0"/>
        <edge id="-gneE25" sampledSeconds="7.37" CO_abs="467.921518" CO2_abs="30743.984822" HC_abs="2.860151" PMx_abs="0.579595" NOx_abs="12.851254" fuel_abs="13.215459" electricity_abs="0"
            CO_normed="262.385898" CO2_normed="17239.617657" HC_normed="1.603823" PMx_normed="0.325006" NOx_normed="7.206311" fuel_normed="7.410538" electricity_normed="0"
            traveltime="7.92" CO_perVeh="502.549007" CO2_perVeh="33019.124914" HC_perVeh="3.071810" PMx_perVeh="0.622486" NOx_perVeh="13.802283" fuel_perVeh="14.193440" electricity_perVeh="0"/>
        <edge id="-gneE87" sampledSeconds="9.30" CO_abs="543.666009" CO2_abs="32292.748937" HC_abs="3.241498" PMx_abs="0.620345" NOx_abs="13.635295" fuel_abs="13.881224" electricity_abs="0"
            CO_normed="304.859445" CO2_normed="18108.083516" HC_normed="1.817662" PMx_normed="0.347857" NOx_normed="7.645960" fuel_normed="7.783864" electricity_normed="0"
            traveltime="8.78" CO_perVeh="513.662367" CO2_perVeh="30510.588399" HC_perVeh="3.062607" PMx_perVeh="0.586110" NOx_perVeh="12.882795" fuel_perVeh="13.115152" electricity_perVeh="0"/>
        <edge id="gneE0" sampledSeconds="9.02" CO_abs="463.733483" CO2_abs="28905.808893" HC_abs="2.795817" PMx_abs="0.540432" NOx_abs="12.057155" fuel_abs="12.425337" electricity_abs="0"
            CO_normed="260.037467" CO2_normed="16208.864800" HC_normed="1.567748" PMx_normed="0.303046" NOx_normed="6.761022" fuel_normed="6.967479" electricity_normed="0"
            traveltime="8.52" CO_perVeh="438.141127" CO2_perVeh="27310.565576" HC_perVeh="2.641522" PMx_perVeh="0.510607" NOx_perVeh="11.391749" fuel_perVeh="11.739612" electricity_perVeh="0"/>
        <edge id="gneE10" sampledSeconds="7.63" CO_abs="120.216490" CO2_abs="15723.102483" HC_abs="0.911112" PMx_abs="0.215204" NOx_abs="5.871177" fuel_abs="6.758697" electricity_abs="0"
            CO_normed="67.411116" CO2_normed="8816.692981" HC_normed="0.510904" PMx_normed="0.120675" NOx_normed="3.292249" fuel_normed="3.789923" electricity_normed="0"
            traveltime="7.21" CO_perVeh="113.582026" CO2_perVeh="14855.381596" HC_perVeh="0.860830" PMx_perVeh="0.203327" NOx_perVeh="5.547161" fuel_perVeh="6.385700" electricity_perVeh="0"/>
        <edge id="gneE100" sampledSeconds="10.04" CO_abs="962.382334" CO2_abs="48497.819613" HC_abs="5.535693" PMx_abs="0.971936" NOx_abs="20.743925" fuel_abs="20.847130" electricity_abs="0"
            CO_normed="539.653645" CO2_normed="27195.039035" HC_normed="3.104127" PMx_normed="0.545011" NOx_normed="11.632107" fuel_normed="11.689979" electricity_normed="0"
            traveltime="10.05" CO_perVeh="963.507927" CO2_perVeh="48554.542209" HC_perVeh="5.542168" PMx_perVeh="0.973073" NOx_perVeh="20.768187" fuel_perVeh="20.871512" electricity_perVeh="0"/>
        <edge id="gneE104" sampledSeconds="5.75" CO_abs="319.319608" CO2_abs="24793.083004" HC_abs="2.037050" PMx_abs="0.426219" NOx_abs="10.036210" fuel_abs="10.657453" electricity_abs="0"
            CO_normed="171.064076" CO2_normed="13282.008752" HC_normed="1.091277" PMx_normed="0.228331" NOx_normed="5.376541" fuel_normed="5.709350" electricity_normed="0"
            traveltime="7.52" CO_perVeh="417.583358" CO2_perVeh="32422.621692" HC_perVeh="2.663908" PMx_perVeh="0.557378" NOx_perVeh="13.124638" fuel_perVeh="13.937056" electricity_perVeh="0"/>
        <edge id="gneE108" sampledSeconds="7.03" CO_abs="499.394756" CO2_abs="33987.450014" HC_abs="3.086467" PMx_abs="0.664955" NOx_abs="14.308896" fuel_abs="14.609633" electricity_abs="0"
            CO_normed="280.034443" CO2_normed="19058.383185" HC_normed="1.730729" PMx_normed="0.372872" NOx_normed="8.023680" fuel_normed="8.192318" electricity_normed="0"
            traveltime="6.64" CO_perVeh="471.834339" CO2_perVeh="32111.762927" HC_perVeh="2.916132" PMx_perVeh="0.628257" NOx_perVeh="13.519222" fuel_perVeh="13.803362" electricity_perVeh="0"/>
        <edge id="gneE109" sampledSeconds="6.28" CO_abs="103.649034" CO2_abs="13442.009011" HC_abs="0.786564" PMx_abs="0.200733" NOx_abs="5.097639" fuel_abs="5.778129" electricity_abs="0"
            CO_normed="58.120954" CO2_normed="7537.575146" HC_normed="0.441064" PMx_normed="0.112560" NOx_normed="2.858489" fuel_normed="3.240073" electricity_normed="0"
            traveltime="5.93" CO_perVeh="97.928889" CO2_perVeh="12700.176284" HC_perVeh="0.743156" PMx_perVeh="0.189655" NOx_perVeh="4.816313" fuel_perVeh="5.459248" electricity_perVeh="0"/>
        <edge id="gneE112" sampledSeconds="6.74" CO_abs="79.922847" CO2_abs="14132.121996" HC_abs="0.682891" PMx_abs="0.169749" NOx_abs="5.076874" fuel_abs="6.074818" electricity_abs="0"
            CO_normed="44.816550" CO2_normed="7924.554390" HC_normed="0.382930" PMx_normed="0.095186" NOx_normed="2.846845" fuel_normed="3.406440" electricity_normed="0"
            traveltime="6.37" CO_perVeh="75.512094" CO2_perVeh="13352.203564" HC_perVeh="0.645204" PMx_perVeh="0.160380" NOx_perVeh="4.796694" fuel_perVeh="5.739563" electricity_perVeh="0"/>
        <edge id="gneE113" sampledSeconds="6.80" CO_abs="71.715945" CO2_abs="13751.841075" HC_abs="0.619594" PMx_abs="0.152894" NOx_abs="4.852850" fuel_abs="5.911362" electricity_abs="0"
            CO_normed="40.214549" CO2_normed="7711.312752" HC_normed="0.347436" PMx_normed="0.085735" NOx_normed="2.721224" fuel_normed="3.314782" electricity_normed="0"
            traveltime="6.43" CO_perVeh="67.758111" CO2_perVeh="12992.909448" HC_perVeh="0.585400" PMx_perVeh="0.144456" NOx_perVeh="4.585033" fuel_perVeh="5.585128" electricity_perVeh="0"/>
        <edge id="gneE123" sampledSeconds="8.35" CO_abs="0" CO2_abs="0" HC_abs="0" PMx_abs="0" NOx_abs="0" fuel_abs="0" electricity_abs="0"
            CO_normed="0" CO2_normed="0" HC_normed="0" PMx_normed="0" NOx_normed="0" fuel_normed="0" electricity_normed="0"
            traveltime="7.92" CO_perVeh="0" CO2_perVeh="0" HC_perVeh="0" PMx_perVeh="0" NOx_perVeh="0" fuel_perVeh="0" electricity_perVeh="0"/>
        <edge id="gneE19" sampledSeconds="3.11" CO_abs="39.004301" CO2_abs="7456.839008" HC_abs="0.349884" PMx_abs="0.094666" NOx_abs="2.692798" fuel_abs="3.205380" electricity_abs="0"
            CO_normed="21.871571" CO2_normed="4181.405051" HC_normed="0.196197" PMx_normed="0.053084" NOx_normed="1.509980" fuel_normed="1.797409" electricity_normed="0"
            traveltime="6.01" CO_perVeh="75.447379" CO2_perVeh="14424.023682" HC_perVeh="0.676793" PMx_perVeh="0.183116" NOx_perVeh="5.208773" fuel_perVeh="6.200279" electricity_perVeh="0"/>
        <edge id="gneE53" sampledSeconds="8.01" CO_abs="0" CO2_abs="0" HC_abs="0" PMx_abs="0" NOx_abs="0" fuel_abs="0" electricity_abs="0"
            CO_normed="0" CO2_normed="0" HC_normed="0" PMx_normed="0" NOx_normed="0" fuel_normed="0" electricity_normed="0"
            traveltime="7.57" CO_perVeh="0" CO2_perVeh="0" HC_perVeh="0" PMx_perVeh="0" NOx_perVeh="0" fuel_perVeh="0" electricity_perVeh="0"/>
        <edge id="gneE60" sampledSeconds="6.46" CO_abs="0" CO2_abs="0" HC_abs="0" PMx_abs="0" NOx_abs="0" fuel_abs="0" electricity_abs="0"
            CO_normed="0" CO2_normed="0" HC_normed="0" PMx_normed="0" NOx_normed="0" fuel_normed="0" electricity_normed="0"
            traveltime="6.10" CO_perVeh="0" CO2_perVeh="0" HC_perVeh="0" PMx_perVeh="0" NOx_perVeh="0" fuel_perVeh="0" electricity_perVeh="0"/>
        <edge id="gneE64" sampledSeconds="4.67" CO_abs="0" CO2_abs="0" HC_abs="0" PMx_abs="0" NOx_abs="0" fuel_abs="0" electricity_abs="0"
            CO_normed="0" CO2_normed="0" HC_normed="0" PMx_normed="0" NOx_normed="0" fuel_normed="0" electricity_normed="0"
            traveltime="6.18" CO_perVeh="0" CO2_perVeh="0" HC_perVeh="0" PMx_perVeh="0" NOx_perVeh="0" fuel_perVeh="0" electricity_perVeh="0"/>
        <edge id="gneE75" sampledSeconds="7.17" CO_abs="71.975691" CO2_abs="10777.539860" HC_abs="0.573773" PMx_abs="0.128742" NOx_abs="3.901242" fuel_abs="4.632828" electricity_abs="0"
            CO_normed="40.360200" CO2_normed="6043.480295" HC_normed="0.321742" PMx_normed="0.072192" NOx_normed="2.187613" fuel_normed="2.597848" electricity_normed="0"
            traveltime="6.78" CO_perVeh="68.003522" CO2_perVeh="10182.752892" HC_perVeh="0.542108" PMx_perVeh="0.121637" NOx_perVeh="3.685942" fuel_perVeh="4.377154" electricity_perVeh="0"/>
        <edge id="gneE80" sampledSeconds="7.35" CO_abs="107.073737" CO2_abs="10485.808862" HC_abs="0.731952" PMx_abs="0.161113" NOx_abs="4.077975" fuel_abs="4.507397" electricity_abs="0"
            CO_normed="60.041348" CO2_normed="5879.892820" HC_normed="0.410440" PMx_normed="0.090344" NOx_normed="2.286715" fuel_normed="2.527512" electricity_normed="0"
            traveltime="6.95" CO_perVeh="101.164590" CO2_perVeh="9907.121839" HC_perVeh="0.691557" PMx_perVeh="0.152222" NOx_perVeh="3.852921" fuel_perVeh="4.258644" electricity_perVeh="0"/>
        <edge id="gneE81" sampledSeconds="7.19" CO_abs="151.953456" CO2_abs="15304.809987" HC_abs="1.048785" PMx_abs="0.234536" NOx_abs="5.938536" fuel_abs="6.578876" electricity_abs="0"
            CO_normed="85.207545" CO2_normed="8582.136441" HC_normed="0.588104" PMx_normed="0.131515" NOx_normed="3.330020" fuel_normed="3.689089" electricity_normed="0"
            traveltime="6.80" CO_perVeh="143.567504" CO2_perVeh="14460.173674" HC_perVeh="0.990905" PMx_perVeh="0.221592" NOx_perVeh="5.610802" fuel_perVeh="6.215803" electricity_perVeh="0"/>
        <edge id="gneE82" sampledSeconds="8.65" CO_abs="72.825225" CO2_abs="9767.700761" HC_abs="0.553044" PMx_abs="0.111194" NOx_abs="3.517127" fuel_abs="4.198753" electricity_abs="0"
            CO_normed="40.836575" CO2_normed="5477.215380" HC_normed="0.310118" PMx_normed="0.062352" NOx_normed="1.972221" fuel_normed="2.354441" electricity_normed="0"
            traveltime="8.18" CO_perVeh="68.806173" CO2_perVeh="9228.644427" HC_perVeh="0.522522" PMx_perVeh="0.105058" NOx_perVeh="3.323025" fuel_perVeh="3.967033" electricity_perVeh="0"/>
        <edge id="gneE88" sampledSeconds="8.99" CO_abs="420.009395" CO2_abs="29448.403959" HC_abs="2.602897" PMx_abs="0.504437" NOx_abs="11.943472" fuel_abs="12.658605" electricity_abs="0"
            CO_normed="235.519287" CO2_normed="16513.123715" HC_normed="1.459569" PMx_normed="0.282862" NOx_normed="6.697274" fuel_normed="7.098283" electricity_normed="0"
            traveltime="8.50" CO_perVeh="396.830068" CO2_perVeh="27823.216102" HC_perVeh="2.459250" PMx_perVeh="0.476599" NOx_perVeh="11.284340" fuel_perVeh="11.960006" electricity_perVeh="0"/>
        <edge id="gneE9" sampledSeconds="6.69" CO_abs="116.757289" CO2_abs="13781.344472" HC_abs="0.852736" PMx_abs="0.207292" NOx_abs="5.269747" fuel_abs="5.923998" electricity_abs="0"
            CO_normed="65.471377" CO2_normed="7727.856713" HC_normed="0.478170" PMx_normed="0.116239" NOx_normed="2.954998" fuel_normed="3.321868" electricity_normed="0"
            traveltime="6.32" CO_perVeh="110.313730" CO2_perVeh="13020.784623" HC_perVeh="0.805676" PMx_perVeh="0.195852" NOx_perVeh="4.978922" fuel_perVeh="5.597066" electricity_perVeh="0"/>
    </interval>
    <interval begin="150.00" end="225.00" id="edgeDetector">
        <edge id="-gneE119" sampledSeconds="53.86" CO_abs="4425.750089" CO2_abs="184898.573003" HC_abs="24.536120" PMx_abs="3.752209" NOx_abs="79.392839" fuel_abs="79.480531" electricity_abs="0"
            CO_normed="2289.181080" CO2_normed="95637.192933" HC_normed="12.691097" PMx_normed="1.940798" NOx_normed="41.065261" fuel_normed="41.110619" electricity_normed="0"
            traveltime="13.67" CO_perVeh="1122.774142" CO2_perVeh="46907.153016" HC_perVeh="6.224599" PMx_perVeh="0.951903" NOx_perVeh="20.141270" fuel_perVeh="20.163516" electricity_perVeh="0"/>
        <edge id="-gneE12" sampledSeconds="8.27" CO_abs="354.139111" CO2_abs="26634.736003" HC_abs="2.238139" PMx_abs="0.455388" NOx_abs="10.762252" fuel_abs="11.449113" electricity_abs="0"
            CO_normed="198.582679" CO2_normed="14935.365983" HC_normed="1.255031" PMx_normed="0.255358" NOx_normed="6.034907" fuel_normed="6.420063" electricity_normed="0"
            traveltime="7.81" CO_perVeh="334.595010" CO2_perVeh="25164.827835" HC_perVeh="2.114621" PMx_perVeh="0.430256" NOx_perVeh="10.168308" fuel_perVeh="10.817263" electricity_perVeh="0"/>
        <edge id="-gneE13" sampledSeconds="4.92" CO_abs="141.455914" CO2_abs="11451.349084" HC_abs="0.908386" PMx_abs="0.169061" NOx_abs="4.445355" fuel_abs="4.922469" electricity_abs="0"
            CO_normed="79.321073" CO2_normed="6421.317244" HC_normed="0.509376" PMx_normed="0.094801" NOx_normed="2.492723" fuel_normed="2.760263" electricity_normed="0"
            traveltime="8.67" CO_perVeh="249.369639" CO2_perVeh="20187.341118" HC_perVeh="1.601375" PMx_perVeh="0.298034" NOx_perVeh="7.836623" fuel_perVeh="8.677716" electricity_perVeh="0"/>
        <edge id="-gneE14" sampledSeconds="7.56" CO_abs="451.744698" CO2_abs="32106.645562" HC_abs="2.820730" PMx_abs="0.604668" NOx_abs="13.357501" fuel_abs="13.801182" electricity_abs="0"
            CO_normed="253.314784" CO2_normed="18003.726484" HC_normed="1.581718" PMx_normed="0.339066" NOx_normed="7.490188" fuel_normed="7.738980" electricity_normed="0"
            traveltime="7.14" CO_perVeh="426.813975" CO2_perVeh="30334.755631" HC_perVeh="2.665060" PMx_perVeh="0.571298" NOx_perVeh="12.620332" fuel_perVeh="13.039527" electricity_perVeh="0"/>
        <edge id="-gneE24" sampledSeconds="8.00" CO_abs="449.500247" CO2_abs="31328.306158" HC_abs="2.791331" PMx_abs="0.588144" NOx_abs="13.024162" fuel_abs="13.466619" electricity_abs="0"
            CO_normed="252.056213" CO2_normed="17567.274481" HC_normed="1.565232" PMx_normed="0.329800" NOx_normed="7.303268" fuel_normed="7.551375" electricity_normed="0"
            traveltime="7.56" CO_perVeh="424.693390" CO2_perVeh="29599.370939" HC_perVeh="2.637284" PMx_perVeh="0.555685" NOx_perVeh="12.305389" fuel_perVeh="12.723428" electricity_perVeh="0"/>
        <edge id="-gneE25" sampledSeconds="1.84" CO_abs="122.255486" CO2_abs="5781.492749" HC_abs="0.694703" PMx_abs="0.121591" NOx_abs="2.534395" fuel_abs="2.485211" electricity_abs="0"
            CO_normed="68.554478" CO2_normed="3241.958551" HC_normed="0.389553" PMx_normed="0.068182" NOx_normed="1.421156" fuel_normed="1.393576" electricity_normed="0"
            traveltime="14.43" CO_perVeh="960.260466" CO2_perVeh="45410.959566" HC_perVeh="5.456573" PMx_perVeh="0.955038" NOx_perVeh="19.906506" fuel_perVeh="19.520183" electricity_perVeh="0"/>
        <edge id="-gneE45" sampledSeconds="8.89" CO_abs="346.154846" CO2_abs="24183.778593" HC_abs="2.143577" PMx_abs="0.415898" NOx_abs="9.810878" fuel_abs="10.395568" electricity_abs="0"
            CO_normed="194.105521" CO2_normed="13560.997342" HC_normed="1.202006" PMx_normed="0.233214" NOx_normed="5.501427" fuel_normed="5.829290" electricity_normed="0"
            traveltime="8.40" CO_perVeh="327.051378" CO2_perVeh="22849.132976" HC_perVeh="2.025279" PMx_perVeh="0.392946" NOx_perVeh="9.269439" fuel_perVeh="9.821861" electricity_perVeh="0"/>
        <edge id="-gneE51" sampledSeconds="7.85" CO_abs="405.466366" CO2_abs="27953.604493" HC_abs="2.514660" PMx_abs="0.547709" NOx_abs="11.785770" fuel_abs="12.015955" electricity_abs="0"
            CO_normed="227.364317" CO2_normed="15674.918407" HC_normed="1.410090" PMx_normed="0.307127" NOx_normed="6.608843" fuel_normed="6.737919" electricity_normed="0"
            traveltime="7.60" CO_perVeh="392.711009" CO2_perVeh="27074.226538" HC_perVeh="2.435553" PMx_perVeh="0.530479" NOx_perVeh="11.415008" fuel_perVeh="11.637951" electricity_perVeh="0"/>
        <edge id="gneE10" sampledSeconds="22.71" CO_abs="411.610360" CO2_abs="34706.919417" HC_abs="2.687352" PMx_abs="0.570178" NOx_abs="13.815436" fuel_abs="14.918991" electricity_abs="0"
            CO_normed="230.809547" CO2_normed="19461.823972" HC_normed="1.506927" PMx_normed="0.319726" NOx_normed="7.746973" fuel_normed="8.365790" electricity_normed="0"
            traveltime="7.15" CO_perVeh="129.631519" CO2_perVeh="10930.508838" HC_perVeh="0.846348" PMx_perVeh="0.179570" NOx_perVeh="4.350998" fuel_perVeh="4.698549" electricity_perVeh="0"/>
        <edge id="gneE103" sampledSeconds="4.00" CO_abs="533.280378" CO2_abs="18113.526409" HC_abs="2.855061" PMx_abs="0.375677" NOx_abs="7.907248" fuel_abs="7.786348" electricity_abs="0"
            CO_normed="285.685917" CO2_normed="9703.674862" HC_normed="1.529497" PMx_normed="0.201256" NOx_normed="4.236026" fuel_normed="4.171258" electricity_normed="0"
            traveltime="19.33" CO_perVeh="2577.710138" CO2_perVeh="87555.107110" HC_perVeh="13.800468" PMx_perVeh="1.815905" NOx_perVeh="38.221156" fuel_perVeh="37.636766" electricity_perVeh="0"/>
        <edge id="gneE11" sampledSeconds="22.95" CO_abs="235.174484" CO2_abs="27232.110698" HC_abs="1.691695" PMx_abs="0.336004" NOx_abs="10.010502" fuel_abs="11.706004" electricity_abs="0"
            CO_normed="131.873542" CO2_normed="15270.342447" HC_normed="0.948614" PMx_normed="0.188414" NOx_normed="5.613365" fuel_normed="6.564114" electricity_normed="0"
            traveltime="7.23" CO_perVeh="74.065253" CO2_perVeh="8576.411611" HC_perVeh="0.532778" PMx_perVeh="0.105820" NOx_perVeh="3.152682" fuel_perVeh="3.686659" electricity_perVeh="0"/>
        <edge id="gneE112" sampledSeconds="21.51" CO_abs="352.045483" CO2_abs="36438.034385" HC_abs="2.448566" PMx_abs="0.533334" NOx_abs="13.948162" fuel_abs="15.663167" electricity_abs="0"
            CO_normed="197.408682" CO2_normed="20432.542646" HC_normed="1.373028" PMx_normed="0.299066" NOx_normed="7.821399" fuel_normed="8.783085" electricity_normed="0"
            traveltime="6.77" CO_perVeh="110.872308" CO2_perVeh="11475.701778" HC_perVeh="0.771145" PMx_perVeh="0.167967" NOx_perVeh="4.392799" fuel_perVeh="4.932918" electricity_perVeh="0"/>
        <edge id="gneE113" sampledSeconds="21.42" CO_abs="275.932688" CO2_abs="40581.683823" HC_abs="2.188456" PMx_abs="0.509924" NOx_abs="14.793690" fuel_abs="17.444396" electricity_abs="0"
            CO_normed="154.728610" CO2_normed="22756.084387" HC_normed="1.227172" PMx_normed="0.285939" NOx_normed="8.295527" fuel_normed="9.781905" electricity_normed="0"
            traveltime="6.75" CO_perVeh="86.901538" CO2_perVeh="12780.692183" HC_perVeh="0.689227" PMx_perVeh="0.160594" NOx_perVeh="4.659087" fuel_perVeh="5.493894" electricity_perVeh="0"/>
        <edge id="gneE122" sampledSeconds="8.31" CO_abs="324.789617" CO2_abs="28378.154010" HC_abs="2.136871" PMx_abs="0.428983" NOx_abs="11.059424" fuel_abs="12.198577" electricity_abs="0"
            CO_normed="167.994630" CO2_normed="14678.355522" HC_normed="1.105278" PMx_normed="0.221888" NOx_normed="5.720392" fuel_normed="6.309609" electricity_normed="0"
            traveltime="7.89" CO_perVeh="308.184831" CO2_perVeh="26927.328140" HC_perVeh="2.027624" PMx_perVeh="0.407051" NOx_perVeh="10.494014" fuel_perVeh="11.574928" electricity_perVeh="0"/>
        <edge id="gneE19" sampledSeconds="75.00" CO_abs="10545.777778" CO2_abs="170644.622646" HC_abs="52.023107" PMx_abs="4.242113" NOx_abs="77.937494" fuel_abs="73.357702" electricity_abs="0"
            CO_normed="5913.520249" CO2_normed="95688.573447" HC_normed="29.171836" PMx_normed="2.378755" NOx_normed="43.703268" fuel_normed="41.135160" electricity_normed="0"
            traveltime="155.28" CO_perVeh="21833.279049" CO2_perVeh="353291.311749" HC_perVeh="107.705192" PMx_perVeh="8.782589" NOx_perVeh="161.356621" fuel_perVeh="151.874922" electricity_perVeh="0"/>
        <edge id="gneE41" sampledSeconds="8.99" CO_abs="457.000490" CO2_abs="29070.739828" HC_abs="2.769427" PMx_abs="0.543162" NOx_abs="12.114009" fuel_abs="12.496227" electricity_abs="0"
            CO_normed="256.261957" CO2_normed="16301.349436" HC_normed="1.552950" PMx_normed="0.304577" NOx_normed="6.792902" fuel_normed="7.007230" electricity_normed="0"
            traveltime="8.49" CO_perVeh="431.779712" CO2_perVeh="27466.394363" HC_perVeh="2.616589" PMx_perVeh="0.513186" NOx_perVeh="11.445465" fuel_perVeh="11.806590" electricity_perVeh="0"/>
        <edge id="gneE46" sampledSeconds="19.49" CO_abs="333.174885" CO2_abs="34893.225056" HC_abs="2.317478" PMx_abs="0.465018" NOx_abs="13.102295" fuel_abs="14.999182" electricity_abs="0"
            CO_normed="186.827038" CO2_normed="19566.294424" HC_normed="1.299521" PMx_normed="0.260758" NOx_normed="7.347081" fuel_normed="8.410756" electricity_normed="0"
            traveltime="7.56" CO_perVeh="129.223604" CO2_perVeh="13533.518034" HC_perVeh="0.898846" PMx_perVeh="0.180360" NOx_perVeh="5.081793" fuel_perVeh="5.817510" electricity_perVeh="0"/>
        <edge id="gneE48" sampledSeconds="9.49" CO_abs="672.220128" CO2_abs="37820.203791" HC_abs="3.963581" PMx_abs="0.762577" NOx_abs="16.219115" fuel_abs="16.257206" electricity_abs="0"
            CO_normed="376.945866" CO2_normed="21207.590911" HC_normed="2.222569" PMx_normed="0.427613" NOx_normed="9.094831" fuel_normed="9.116190" electricity_normed="0"
            traveltime="8.96" CO_perVeh="635.121887" CO2_perVeh="35732.996076" HC_perVeh="3.744840" PMx_perVeh="0.720492" NOx_perVeh="15.324020" fuel_perVeh="15.360009" electricity_perVeh="0"/>
        <edge id="gneE9" sampledSeconds="21.39" CO_abs="358.871107" CO2_abs="37145.336975" HC_abs="2.496478" PMx_abs="0.545102" NOx_abs="14.218416" fuel_abs="15.967206" electricity_abs="0"
            CO_normed="201.236135" CO2_normed="20829.160921" HC_normed="1.399894" PMx_normed="0.305665" NOx_normed="7.972944" fuel_normed="8.953573" electricity_normed="0"
            traveltime="6.74" CO_perVeh="113.021953" CO2_perVeh="11698.457855" HC_perVeh="0.786235" PMx_perVeh="0.171673" NOx_perVeh="4.477912" fuel_perVeh="5.028671" electricity_perVeh="0"/>
    </interval>
    <interval begin="225.00" end="300.00" id="edgeDetector">
        <edge id="-gneE115" sampledSeconds="11.01" CO_abs="0" CO2_abs="0" HC_abs="0" PMx_abs="0" NOx_abs="0" fuel_abs="0" electricity_abs="0"
            CO_normed="0" CO2_normed="0" HC_normed="0" PMx_normed="0" NOx_normed="0" fuel_normed="0" electricity_normed="0"
            traveltime="11.02" CO_perVeh="0" CO2_perVeh="0" HC_perVeh="0" PMx_perVeh="0" NOx_perVeh="0" fuel_perVeh="0" electricity_perVeh="0"/>
        <edge id="-gneE119" sampledSeconds="75.00" CO_abs="12358.333333" CO2_abs="196854.166667" HC_abs="60.895833" PMx_abs="4.947917" NOx_abs="90.333333" fuel_abs="84.624888" electricity_abs="0"
            CO_normed="6392.241379" CO2_normed="101821.120690" HC_normed="31.497845" PMx_normed="2.559267" NOx_normed="46.724138" fuel_normed="43.771494" electricity_normed="0"
            traveltime="100000.00" CO_perVeh="16477777.777778" CO2_perVeh="262472222.222222" HC_perVeh="81194.444444" PMx_perVeh="6597.222222" NOx_perVeh="120444.444444" fuel_perVeh="112833.183588" electricity_perVeh="0"/>
        <edge id="-gneE51" sampledSeconds="0.29" CO_abs="19.583328" CO2_abs="954.275673" HC_abs="0.110902" PMx_abs="0.014425" NOx_abs="0.380546" fuel_abs="0.410210" electricity_abs="0"
            CO_normed="10.981305" CO2_normed="535.107854" HC_normed="0.062188" PMx_normed="0.008089" NOx_normed="0.213390" fuel_normed="0.230024" electricity_normed="0"
            traveltime="11.16" CO_perVeh="755.210480" CO2_perVeh="36800.639466" HC_perVeh="4.276800" PMx_perVeh="0.556280" NOx_perVeh="14.675368" fuel_perVeh="15.819302" electricity_perVeh="0"/>
        <edge id="-gneE53" sampledSeconds="9.50" CO_abs="540.429515" CO2_abs="33382.615517" HC_abs="3.245171" PMx_abs="0.597965" NOx_abs="13.798466" fuel_abs="14.349759" electricity_abs="0"
            CO_normed="303.044588" CO2_normed="18719.223654" HC_normed="1.819722" PMx_normed="0.335307" NOx_normed="7.737458" fuel_normed="8.046594" electricity_normed="0"