<?xml version="1.0" encoding="UTF-8"?>

<!-- generated on 01/28/21 00:49:26 by Eclipse SUMO GUI Version 1.7.0
<configuration xmlns:xsi="http://www.w3.org/2001/XMLSchema-instance" xsi:noNamespaceSchemaLocation="http://sumo.dlr.de/xsd/sumoConfiguration.xsd">

    <input>
        <net-file value="case1.net.xml"/>
        <route-files value="case1.rou.xml"/>
        <additional-files value="case1.add.xml"/>
    </input>

    <output>
        <emission-output value="emissionOutput.xml"/>
        <tripinfo-output value="tripinfo.xml"/>
    </output>

    <processing>
        <ignore-route-errors value="true"/>
    </processing>

    <traci_server>
        <remote-port value="55376"/>
    </traci_server>

</configuration>
-->

<meandata xmlns:xsi="http://www.w3.org/2001/XMLSchema-instance" xsi:noNamespaceSchemaLocation="http://sumo.dlr.de/xsd/meandata_file.xsd">
    <interval begin="0.00" end="75.00" id="edgeDetector">
        <edge id="-gneE1" sampledSeconds="6.43" CO_abs="0" CO2_abs="0" HC_abs="0" PMx_abs="0" NOx_abs="0" fuel_abs="0" electricity_abs="0"
            CO_normed="0" CO2_normed="0" HC_normed="0" PMx_normed="0" NOx_normed="0" fuel_normed="0" electricity_normed="0"
            traveltime="6.08" CO_perVeh="0" CO2_perVeh="0" HC_perVeh="0" PMx_perVeh="0" NOx_perVeh="0" fuel_perVeh="0" electricity_perVeh="0"/>
        <edge id="-gneE118" sampledSeconds="9.86" CO_abs="0" CO2_abs="0" HC_abs="0" PMx_abs="0" NOx_abs="0" fuel_abs="0" electricity_abs="0"
            CO_normed="0" CO2_normed="0" HC_normed="0" PMx_normed="0" NOx_normed="0" fuel_normed="0" electricity_normed="0"
            traveltime="9.87" CO_perVeh="0" CO2_perVeh="0" HC_perVeh="0" PMx_perVeh="0" NOx_perVeh="0" fuel_perVeh="0" electricity_perVeh="0"/>
        <edge id="-gneE2" sampledSeconds="6.44" CO_abs="0" CO2_abs="0" HC_abs="0" PMx_abs="0" NOx_abs="0" fuel_abs="0" electricity_abs="0"
            CO_normed="0" CO2_normed="0" HC_normed="0" PMx_normed="0" NOx_normed="0" fuel_normed="0" electricity_normed="0"
            traveltime="6.08" CO_perVeh="0" CO2_perVeh="0" HC_perVeh="0" PMx_perVeh="0" NOx_perVeh="0" fuel_perVeh="0" electricity_perVeh="0"/>
        <edge id="-gneE5" sampledSeconds="6.32" CO_abs="0" CO2_abs="0" HC_abs="0" PMx_abs="0" NOx_abs="0" fuel_abs="0" electricity_abs="0"
            CO_normed="0" CO2_normed="0" HC_normed="0" PMx_normed="0" NOx_normed="0" fuel_normed="0" electricity_normed="0"
            traveltime="5.97" CO_perVeh="0" CO2_perVeh="0" HC_perVeh="0" PMx_perVeh="0" NOx_perVeh="0" fuel_perVeh="0" electricity_perVeh="0"/>
        <edge id="gneE104" sampledSeconds="4.00" CO_abs="536.127265" CO2_abs="19905.212119" HC_abs="2.911628" PMx_abs="0.412243" NOx_abs="8.687000" fuel_abs="8.556487" electricity_abs="0"
            CO_normed="287.211035" CO2_normed="10663.506492" HC_normed="1.559801" PMx_normed="0.220845" NOx_normed="4.653750" fuel_normed="4.583832" electricity_normed="0"
            traveltime="17.08" CO_perVeh="2289.193207" CO2_perVeh="84992.648905" HC_perVeh="12.432269" PMx_perVeh="1.760225" NOx_perVeh="37.092353" fuel_perVeh="36.535079" electricity_perVeh="0"/>
        <edge id="gneE107" sampledSeconds="6.57" CO_abs="0" CO2_abs="0" HC_abs="0" PMx_abs="0" NOx_abs="0" fuel_abs="0" electricity_abs="0"
            CO_normed="0" CO2_normed="0" HC_normed="0" PMx_normed="0" NOx_normed="0" fuel_normed="0" electricity_normed="0"
            traveltime="6.21" CO_perVeh="0" CO2_perVeh="0" HC_perVeh="0" PMx_perVeh="0" NOx_perVeh="0" fuel_perVeh="0" electricity_perVeh="0"/>
        <edge id="gneE62" sampledSeconds="6.40" CO_abs="0" CO2_abs="0" HC_abs="0" PMx_abs="0" NOx_abs="0" fuel_abs="0" electricity_abs="0"
            CO_normed="0" CO2_normed="0" HC_normed="0" PMx_normed="0" NOx_normed="0" fuel_normed="0" electricity_normed="0"
            traveltime="6.04" CO_perVeh="0" CO2_perVeh="0" HC_perVeh="0" PMx_perVeh="0" NOx_perVeh="0" fuel_perVeh="0" electricity_perVeh="0"/>
        <edge id="gneE63" sampledSeconds="7.32" CO_abs="0" CO2_abs="0" HC_abs="0" PMx_abs="0" NOx_abs="0" fuel_abs="0" electricity_abs="0"
            CO_normed="0" CO2_normed="0" HC_normed="0" PMx_normed="0" NOx_normed="0" fuel_normed="0" electricity_normed="0"
            traveltime="6.92" CO_perVeh="0" CO2_perVeh="0" HC_perVeh="0" PMx_perVeh="0" NOx_perVeh="0" fuel_perVeh="0" electricity_perVeh="0"/>
        <edge id="gneE64" sampledSeconds="2.62" CO_abs="0" CO2_abs="0" HC_abs="0" PMx_abs="0" NOx_abs="0" fuel_abs="0" electricity_abs="0"
            CO_normed="0" CO2_normed="0" HC_normed="0" PMx_normed="0" NOx_normed="0" fuel_normed="0" electricity_normed="0"
            traveltime="8.64" CO_perVeh="0" CO2_perVeh="0" HC_perVeh="0" PMx_perVeh="0" NOx_perVeh="0" fuel_perVeh="0" electricity_perVeh="0"/>
        <edge id="gneE91" sampledSeconds="6.28" CO_abs="0" CO2_abs="0" HC_abs="0" PMx_abs="0" NOx_abs="0" fuel_abs="0" electricity_abs="0"
            CO_normed="0" CO2_normed="0" HC_normed="0" PMx_normed="0" NOx_normed="0" fuel_normed="0" electricity_normed="0"
            traveltime="5.94" CO_perVeh="0" CO2_perVeh="0" HC_perVeh="0" PMx_perVeh="0" NOx_perVeh="0" fuel_perVeh="0" electricity_perVeh="0"/>
    </interval>
    <interval begin="75.00" end="150.00" id="edgeDetector">
        <edge id="-gneE119" sampledSeconds="10.24" CO_abs="0" CO2_abs="0" HC_abs="0" PMx_abs="0" NOx_abs="0" fuel_abs="0" electricity_abs="0"
            CO_normed="0" CO2_normed="0" HC_normed="0" PMx_normed="0" NOx_normed="0" fuel_normed="0" electricity_normed="0"
            traveltime="10.25" CO_perVeh="0" CO2_perVeh="0" HC_perVeh="0" PMx_perVeh="0" NOx_perVeh="0" fuel_perVeh="0" electricity_perVeh="0"/>
        <edge id="-gneE13" sampledSeconds="3.72" CO_abs="246.850958" CO2_abs="16409.234806" HC_abs="1.512732" PMx_abs="0.306125" NOx_abs="6.846055" fuel_abs="7.053595" electricity_abs="0"
            CO_normed="138.421098" CO2_normed="9201.440078" HC_normed="0.848261" PMx_normed="0.171659" NOx_normed="3.838909" fuel_normed="3.955287" electricity_normed="0"
            traveltime="7.58" CO_perVeh="502.590470" CO2_perVeh="33409.329627" HC_perVeh="3.079934" PMx_perVeh="0.623273" NOx_perVeh="13.938621" fuel_perVeh="14.361175" electricity_perVeh="0"/>
        <edge id="-gneE25" sampledSeconds="7.37" CO_abs="0" CO2_abs="0" HC_abs="0" PMx_abs="0" NOx_abs="0" fuel_abs="0" electricity_abs="0"
            CO_normed="0" CO2_normed="0" HC_normed="0" PMx_normed="0" NOx_normed="0" fuel_normed="0" electricity_normed="0"
            traveltime="7.92" CO_perVeh="0" CO2_perVeh="0" HC_perVeh="0" PMx_perVeh="0" NOx_perVeh="0" fuel_perVeh="0" electricity_perVeh="0"/>
        <edge id="-gneE87" sampledSeconds="9.30" CO_abs="543.666009" CO2_abs="32292.748937" HC_abs="3.241498" PMx_abs="0.620345" NOx_abs="13.635295" fuel_abs="13.881224" electricity_abs="0"
            CO_normed="304.859445" CO2_normed="18108.083516" HC_normed="1.817662" PMx_normed="0.347857" NOx_normed="7.645960" fuel_normed="7.783864" electricity_normed="0"
            traveltime="8.78" CO_perVeh="513.662367" CO2_perVeh="30510.588399" HC_perVeh="3.062607" PMx_perVeh="0.586110" NOx_perVeh="12.882795" fuel_perVeh="13.115152" electricity_perVeh="0"/>
        <edge id="gneE0" sampledSeconds="9.02" CO_abs="463.733483" CO2_abs="28905.808893" HC_abs="2.795817" PMx_abs="0.540432" NOx_abs="12.057155" fuel_abs="12.425337" electricity_abs="0"
            CO_normed="260.037467" CO2_normed="16208.864800" HC_normed="1.567748" PMx_normed="0.303046" NOx_normed="6.761022" fuel_normed="6.967479" electricity_normed="0"
            traveltime="8.52" CO_perVeh="438.141127" CO2_perVeh="27310.565576" HC_perVeh="2.641522" PMx_perVeh="0.510607" NOx_perVeh="11.391749" fuel_perVeh="11.739612" electricity_perVeh="0"/>
        <edge id="gneE10" sampledSeconds="7.63" CO_abs="0" CO2_abs="0" HC_abs="0" PMx_abs="0" NOx_abs="0" fuel_abs="0" electricity_abs="0"
            CO_normed="0" CO2_normed="0" HC_normed="0" PMx_normed="0" NOx_normed="0" fuel_normed="0" electricity_normed="0"
            traveltime="7.21" CO_perVeh="0" CO2_perVeh="0" HC_perVeh="0" PMx_perVeh="0" NOx_perVeh="0" fuel_perVeh="0" electricity_perVeh="0"/>
        <edge id="gneE100" sampledSeconds="10.04" CO_abs="962.382334" CO2_abs="48497.819613" HC_abs="5.535693" PMx_abs="0.971936" NOx_abs="20.743925" fuel_abs="20.847130" electricity_abs="0"
            CO_normed="539.653645" CO2_normed="27195.039035" HC_normed="3.104127" PMx_normed="0.545011" NOx_normed="11.632107" fuel_normed="11.689979" electricity_normed="0"
            traveltime="10.05" CO_perVeh="963.507927" CO2_perVeh="48554.542209" HC_perVeh="5.542168" PMx_perVeh="0.973073" NOx_perVeh="20.768187" fuel_perVeh="20.871512" electricity_perVeh="0"/>
        <edge id="gneE104" sampledSeconds="5.75" CO_abs="319.319608" CO2_abs="24793.083004" HC_abs="2.037050" PMx_abs="0.426219" NOx_abs="10.036210" fuel_abs="10.657453" electricity_abs="0"
            CO_normed="171.064076" CO2_normed="13282.008752" HC_normed="1.091277" PMx_normed="0.228331" NOx_normed="5.376541" fuel_normed="5.709350" electricity_normed="0"
            traveltime="7.52" CO_perVeh="417.583358" CO2_perVeh="32422.621692" HC_perVeh="2.663908" PMx_perVeh="0.557378" NOx_perVeh="13.124638" fuel_perVeh="13.937056" electricity_perVeh="0"/>
        <edge id="gneE108" sampledSeconds="7.03" CO_abs="499.394756" CO2_abs="33987.450014" HC_abs="3.086467" PMx_abs="0.664955" NOx_abs="14.308896" fuel_abs="14.609633" electricity_abs="0"
            CO_normed="280.034443" CO2_normed="19058.383185" HC_normed="1.730729" PMx_normed="0.372872" NOx_normed="8.023680" fuel_normed="8.192318" electricity_normed="0"
            traveltime="6.64" CO_perVeh="471.834339" CO2_perVeh="32111.762927" HC_perVeh="2.916132" PMx_perVeh="0.628257" NOx_perVeh="13.519222" fuel_perVeh="13.803362" electricity_perVeh="0"/>
        <edge id="gneE109" sampledSeconds="6.28" CO_abs="103.649034" CO2_abs="13442.009011" HC_abs="0.786564" PMx_abs="0.200733" NOx_abs="5.097639" fuel_abs="5.778129" electricity_abs="0"
            CO_normed="58.120954" CO2_normed="7537.575146" HC_normed="0.441064" PMx_normed="0.112560" NOx_normed="2.858489" fuel_normed="3.240073" electricity_normed="0"
            traveltime="5.93" CO_perVeh="97.928889" CO2_perVeh="12700.176284" HC_perVeh="0.743156" PMx_perVeh="0.189655" NOx_perVeh="4.816313" fuel_perVeh="5.459248" electricity_perVeh="0"/>
        <edge id="gneE112" sampledSeconds="6.74" CO_abs="0" CO2_abs="0" HC_abs="0" PMx_abs="0" NOx_abs="0" fuel_abs="0" electricity_abs="0"
            CO_normed="0" CO2_normed="0" HC_normed="0" PMx_normed="0" NOx_normed="0" fuel_normed="0" electricity_normed="0"
            traveltime="6.37" CO_perVeh="0" CO2_perVeh="0" HC_perVeh="0" PMx_perVeh="0" NOx_perVeh="0" fuel_perVeh="0" electricity_perVeh="0"/>
        <edge id="gneE113" sampledSeconds="6.80" CO_abs="0" CO2_abs="0" HC_abs="0" PMx_abs="0" NOx_abs="0" fuel_abs="0" electricity_abs="0"
            CO_normed="0" CO2_normed="0" HC_normed="0" PMx_normed="0" NOx_normed="0" fuel_normed="0" electricity_normed="0"
            traveltime="6.43" CO_perVeh="0" CO2_perVeh="0" HC_perVeh="0" PMx_perVeh="0" NOx_perVeh="0" fuel_perVeh="0" electricity_perVeh="0"/>
        <edge id="gneE123" sampledSeconds="8.35" CO_abs="0" CO2_abs="0" HC_abs="0" PMx_abs="0" NOx_abs="0" fuel_abs="0" electricity_abs="0"
            CO_normed="0" CO2_normed="0" HC_normed="0" PMx_normed="0" NOx_normed="0" fuel_normed="0" electricity_normed="0"
            traveltime="7.92" CO_perVeh="0" CO2_perVeh="0" HC_perVeh="0" PMx_perVeh="0" NOx_perVeh="0" fuel_perVeh="0" electricity_perVeh="0"/>
        <edge id="gneE19" sampledSeconds="3.11" CO_abs="39.004301" CO2_abs="7456.839008" HC_abs="0.349884" PMx_abs="0.094666" NOx_abs="2.692798" fuel_abs="3.205380" electricity_abs="0"
            CO_normed="21.871571" CO2_normed="4181.405051" HC_normed="0.196197" PMx_normed="0.053084" NOx_normed="1.509980" fuel_normed="1.797409" electricity_normed="0"
            traveltime="6.01" CO_perVeh="75.447379" CO2_perVeh="14424.023682" HC_perVeh="0.676793" PMx_perVeh="0.183116" NOx_perVeh="5.208773" fuel_perVeh="6.200279" electricity_perVeh="0"/>
        <edge id="gneE53" sampledSeconds="8.01" CO_abs="0" CO2_abs="0" HC_abs="0" PMx_abs="0" NOx_abs="0" fuel_abs="0" electricity_abs="0"
            CO_normed="0" CO2_normed="0" HC_normed="0" PMx_normed="0" NOx_normed="0" fuel_normed="0" electricity_normed="0"
            traveltime="7.57" CO_perVeh="0" CO2_perVeh="0" HC_perVeh="0" PMx_perVeh="0" NOx_perVeh="0" fuel_perVeh="0" electricity_perVeh="0"/>
        <edge id="gneE60" sampledSeconds="6.46" CO_abs="0" CO2_abs="0" HC_abs="0" PMx_abs="0" NOx_abs="0" fuel_abs="0" electricity_abs="0"
            CO_normed="0" CO2_normed="0" HC_normed="0" PMx_normed="0" NOx_normed="0" fuel_normed="0" electricity_normed="0"
            traveltime="6.10" CO_perVeh="0" CO2_perVeh="0" HC_perVeh="0" PMx_perVeh="0" NOx_perVeh="0" fuel_perVeh="0" electricity_perVeh="0"/>
        <edge id="gneE64" sampledSeconds="4.67" CO_abs="0" CO2_abs="0" HC_abs="0" PMx_abs="0" NOx_abs="0" fuel_abs="0" electricity_abs="0"
            CO_normed="0" CO2_normed="0" HC_normed="0" PMx_normed="0" NOx_normed="0" fuel_normed="0" electricity_normed="0"
            traveltime="6.18" CO_perVeh="0" CO2_perVeh="0" HC_perVeh="0" PMx_perVeh="0" NOx_perVeh="0" fuel_perVeh="0" electricity_perVeh="0"/>
        <edge id="gneE75" sampledSeconds="7.17" CO_abs="71.975691" CO2_abs="10777.539860" HC_abs="0.573773" PMx_abs="0.128742" NOx_abs="3.901242" fuel_abs="4.632828" electricity_abs="0"
            CO_normed="40.360200" CO2_normed="6043.480295" HC_normed="0.321742" PMx_normed="0.072192" NOx_normed="2.187613" fuel_normed="2.597848" electricity_normed="0"
            traveltime="6.78" CO_perVeh="68.003522" CO2_perVeh="10182.752892" HC_perVeh="0.542108" PMx_perVeh="0.121637" NOx_perVeh="3.685942" fuel_perVeh="4.377154" electricity_perVeh="0"/>
        <edge id="gneE80" sampledSeconds="7.35" CO_abs="107.073737" CO2_abs="10485.808862" HC_abs="0.731952" PMx_abs="0.161113" NOx_abs="4.077975" fuel_abs="4.507397" electricity_abs="0"
            CO_normed="60.041348" CO2_normed="5879.892820" HC_normed="0.410440" PMx_normed="0.090344" NOx_normed="2.286715" fuel_normed="2.527512" electricity_normed="0"
            traveltime="6.95" CO_perVeh="101.164590" CO2_perVeh="9907.121839" HC_perVeh="0.691557" PMx_perVeh="0.152222" NOx_perVeh="3.852921" fuel_perVeh="4.258644" electricity_perVeh="0"/>
        <edge id="gneE81" sampledSeconds="7.19" CO_abs="151.953456" CO2_abs="15304.809987" HC_abs="1.048785" PMx_abs="0.234536" NOx_abs="5.938536" fuel_abs="6.578876" electricity_abs="0"
            CO_normed="85.207545" CO2_normed="8582.136441" HC_normed="0.588104" PMx_normed="0.131515" NOx_normed="3.330020" fuel_normed="3.689089" electricity_normed="0"
            traveltime="6.80" CO_perVeh="143.567504" CO2_perVeh="14460.173674" HC_perVeh="0.990905" PMx_perVeh="0.221592" NOx_perVeh="5.610802" fuel_perVeh="6.215803" electricity_perVeh="0"/>
        <edge id="gneE82" sampledSeconds="8.65" CO_abs="72.825225" CO2_abs="9767.700761" HC_abs="0.553044" PMx_abs="0.111194" NOx_abs="3.517127" fuel_abs="4.198753" electricity_abs="0"
            CO_normed="40.836575" CO2_normed="5477.215380" HC_normed="0.310118" PMx_normed="0.062352" NOx_normed="1.972221" fuel_normed="2.354441" electricity_normed="0"
            traveltime="8.18" CO_perVeh="68.806173" CO2_perVeh="9228.644427" HC_perVeh="0.522522" PMx_perVeh="0.105058" NOx_perVeh="3.323025" fuel_perVeh="3.967033" electricity_perVeh="0"/>
        <edge id="gneE88" sampledSeconds="8.99" CO_abs="420.009395" CO2_abs="29448.403959" HC_abs="2.602897" PMx_abs="0.504437" NOx_abs="11.943472" fuel_abs="12.658605" electricity_abs="0"
            CO_normed="235.519287" CO2_normed="16513.123715" HC_normed="1.459569" PMx_normed="0.282862" NOx_normed="6.697274" fuel_normed="7.098283" electricity_normed="0"
            traveltime="8.50" CO_perVeh="396.830068" CO2_perVeh="27823.216102" HC_perVeh="2.459250" PMx_perVeh="0.476599" NOx_perVeh="11.284340" fuel_perVeh="11.960006" electricity_perVeh="0"/>
        <edge id="gneE9" sampledSeconds="6.69" CO_abs="0" CO2_abs="0" HC_abs="0" PMx_abs="0" NOx_abs="0" fuel_abs="0" electricity_abs="0"
            CO_normed="0" CO2_normed="0" HC_normed="0" PMx_normed="0" NOx_normed="0" fuel_normed="0" electricity_normed="0"
            traveltime="6.32" CO_perVeh="0" CO2_perVeh="0" HC_perVeh="0" PMx_perVeh="0" NOx_perVeh="0" fuel_perVeh="0" electricity_perVeh="0"/>
    </interval>
