<?xml version="1.0" encoding="UTF-8"?>

<!-- generated on 01/26/21 14:26:16 by Eclipse SUMO GUI Version 1.7.0
<configuration xmlns:xsi="http://www.w3.org/2001/XMLSchema-instance" xsi:noNamespaceSchemaLocation="http://sumo.dlr.de/xsd/sumoConfiguration.xsd">

    <input>
        <net-file value="case1.net.xml"/>
        <route-files value="case1.rou.xml"/>
        <additional-files value="case1.add.xml"/>
    </input>

    <output>
        <emission-output value="emissionOutput.xml"/>
        <tripinfo-output value="tripinfo.xml"/>
    </output>

    <processing>
        <ignore-route-errors value="true"/>
    </processing>

    <traci_server>
        <remote-port value="50082"/>
    </traci_server>

</configuration>
-->

<meandata xmlns:xsi="http://www.w3.org/2001/XMLSchema-instance" xsi:noNamespaceSchemaLocation="http://sumo.dlr.de/xsd/meandata_file.xsd">
    <interval begin="0.00" end="547.00" id="edgeDetector2">
        <edge id="-gneE1" sampledSeconds="6.43" CO_abs="0" CO2_abs="0" HC_abs="0" PMx_abs="0" NOx_abs="0" fuel_abs="0" electricity_abs="0"
            CO_normed="0" CO2_normed="0" HC_normed="0" PMx_normed="0" NOx_normed="0" fuel_normed="0" electricity_normed="0"
            traveltime="6.08" CO_perVeh="0" CO2_perVeh="0" HC_perVeh="0" PMx_perVeh="0" NOx_perVeh="0" fuel_perVeh="0" electricity_perVeh="0"/>
        <edge id="-gneE115" sampledSeconds="11.02" CO_abs="0" CO2_abs="0" HC_abs="0" PMx_abs="0" NOx_abs="0" fuel_abs="0" electricity_abs="0"
            CO_normed="0" CO2_normed="0" HC_normed="0" PMx_normed="0" NOx_normed="0" fuel_normed="0" electricity_normed="0"
            traveltime="11.03" CO_perVeh="0" CO2_perVeh="0" HC_perVeh="0" PMx_perVeh="0" NOx_perVeh="0" fuel_perVeh="0" electricity_perVeh="0"/>
        <edge id="-gneE118" sampledSeconds="9.86" CO_abs="0" CO2_abs="0" HC_abs="0" PMx_abs="0" NOx_abs="0" fuel_abs="0" electricity_abs="0"
            CO_normed="0" CO2_normed="0" HC_normed="0" PMx_normed="0" NOx_normed="0" fuel_normed="0" electricity_normed="0"
            traveltime="9.87" CO_perVeh="0" CO2_perVeh="0" HC_perVeh="0" PMx_perVeh="0" NOx_perVeh="0" fuel_perVeh="0" electricity_perVeh="0"/>
        <edge id="-gneE119" sampledSeconds="353.11" CO_abs="2666.276357" CO2_abs="134392.793675" HC_abs="15.329080" PMx_abs="2.647157" NOx_abs="57.142398" fuel_abs="57.769764" electricity_abs="0"
            CO_normed="189.091654" CO2_normed="9531.103378" HC_normed="1.087134" PMx_normed="0.187736" NOx_normed="4.052525" fuel_normed="4.097017" electricity_normed="0"
            traveltime="71.47" CO_perVeh="539.653238" CO2_perVeh="27201.046166" HC_perVeh="3.102599" PMx_perVeh="0.535783" NOx_perVeh="11.565598" fuel_perVeh="11.692577" electricity_perVeh="0"/>
        <edge id="-gneE12" sampledSeconds="16.37" CO_abs="733.730982" CO2_abs="54281.945305" HC_abs="4.618245" PMx_abs="0.943959" NOx_abs="22.063103" fuel_abs="23.333426" electricity_abs="0"
            CO_normed="56.412879" CO2_normed="4173.465357" HC_normed="0.355074" PMx_normed="0.072576" NOx_normed="1.696321" fuel_normed="1.793990" electricity_normed="0"
            traveltime="7.73" CO_perVeh="346.619051" CO2_perVeh="25643.126479" HC_perVeh="2.181688" PMx_perVeh="0.445932" NOx_perVeh="10.422746" fuel_perVeh="11.022855" electricity_perVeh="0"/>
        <edge id="-gneE13" sampledSeconds="17.46" CO_abs="760.816027" CO2_abs="51508.220296" HC_abs="4.678766" PMx_abs="0.925583" NOx_abs="21.216897" fuel_abs="22.141124" electricity_abs="0"
            CO_normed="58.495312" CO2_normed="3960.207612" HC_normed="0.359727" PMx_normed="0.071163" NOx_normed="1.631260" fuel_normed="1.702320" electricity_normed="0"
            traveltime="8.25" CO_perVeh="359.414194" CO2_perVeh="24332.801641" HC_perVeh="2.210278" PMx_perVeh="0.437251" NOx_perVeh="10.022993" fuel_perVeh="10.459604" electricity_perVeh="0"/>
        <edge id="-gneE14" sampledSeconds="13.59" CO_abs="93.603632" CO2_abs="10977.122527" HC_abs="0.684747" PMx_abs="0.174301" NOx_abs="4.237533" fuel_abs="4.718574" electricity_abs="0"
            CO_normed="7.196712" CO2_normed="843.975659" HC_normed="0.052647" PMx_normed="0.013401" NOx_normed="0.325803" fuel_normed="0.362787" electricity_normed="0"
            traveltime="6.44" CO_perVeh="44.384313" CO2_perVeh="5205.054908" HC_perVeh="0.324689" PMx_perVeh="0.082649" NOx_perVeh="2.009324" fuel_perVeh="2.237420" electricity_perVeh="0"/>
        <edge id="-gneE2" sampledSeconds="6.44" CO_abs="0" CO2_abs="0" HC_abs="0" PMx_abs="0" NOx_abs="0" fuel_abs="0" electricity_abs="0"
            CO_normed="0" CO2_normed="0" HC_normed="0" PMx_normed="0" NOx_normed="0" fuel_normed="0" electricity_normed="0"
            traveltime="6.08" CO_perVeh="0" CO2_perVeh="0" HC_perVeh="0" PMx_perVeh="0" NOx_perVeh="0" fuel_perVeh="0" electricity_perVeh="0"/>
        <edge id="-gneE24" sampledSeconds="9.29" CO_abs="0" CO2_abs="0" HC_abs="0" PMx_abs="0" NOx_abs="0" fuel_abs="0" electricity_abs="0"
            CO_normed="0" CO2_normed="0" HC_normed="0" PMx_normed="0" NOx_normed="0" fuel_normed="0" electricity_normed="0"
            traveltime="8.78" CO_perVeh="0" CO2_perVeh="0" HC_perVeh="0" PMx_perVeh="0" NOx_perVeh="0" fuel_perVeh="0" electricity_perVeh="0"/>
        <edge id="-gneE25" sampledSeconds="9.21" CO_abs="0" CO2_abs="0" HC_abs="0" PMx_abs="0" NOx_abs="0" fuel_abs="0" electricity_abs="0"
            CO_normed="0" CO2_normed="0" HC_normed="0" PMx_normed="0" NOx_normed="0" fuel_normed="0" electricity_normed="0"
            traveltime="8.70" CO_perVeh="0" CO2_perVeh="0" HC_perVeh="0" PMx_perVeh="0" NOx_perVeh="0" fuel_perVeh="0" electricity_perVeh="0"/>
        <edge id="-gneE33" sampledSeconds="8.15" CO_abs="0" CO2_abs="0" HC_abs="0" PMx_abs="0" NOx_abs="0" fuel_abs="0" electricity_abs="0"
            CO_normed="0" CO2_normed="0" HC_normed="0" PMx_normed="0" NOx_normed="0" fuel_normed="0" electricity_normed="0"
            traveltime="7.70" CO_perVeh="0" CO2_perVeh="0" HC_perVeh="0" PMx_perVeh="0" NOx_perVeh="0" fuel_perVeh="0" electricity_perVeh="0"/>
        <edge id="-gneE45" sampledSeconds="16.93" CO_abs="670.376807" CO2_abs="45287.713415" HC_abs="4.123382" PMx_abs="0.828876" NOx_abs="18.737090" fuel_abs="19.467181" electricity_abs="0"
            CO_normed="51.541896" CO2_normed="3481.944171" HC_normed="0.317026" PMx_normed="0.063728" NOx_normed="1.440601" fuel_normed="1.496733" electricity_normed="0"
            traveltime="8.00" CO_perVeh="316.690147" CO2_perVeh="21394.195742" HC_perVeh="1.947911" PMx_perVeh="0.391566" NOx_perVeh="8.851517" fuel_perVeh="9.196417" electricity_perVeh="0"/>
        <edge id="-gneE5" sampledSeconds="6.32" CO_abs="0" CO2_abs="0" HC_abs="0" PMx_abs="0" NOx_abs="0" fuel_abs="0" electricity_abs="0"
            CO_normed="0" CO2_normed="0" HC_normed="0" PMx_normed="0" NOx_normed="0" fuel_normed="0" electricity_normed="0"
            traveltime="5.97" CO_perVeh="0" CO2_perVeh="0" HC_perVeh="0" PMx_perVeh="0" NOx_perVeh="0" fuel_perVeh="0" electricity_perVeh="0"/>
        <edge id="-gneE53" sampledSeconds="9.08" CO_abs="540.267693" CO2_abs="30723.691239" HC_abs="3.184897" PMx_abs="0.574805" NOx_abs="12.888937" fuel_abs="13.206797" electricity_abs="0"
            CO_normed="41.538462" CO2_normed="2362.189864" HC_normed="0.244871" PMx_normed="0.044194" NOx_normed="0.990965" fuel_normed="1.015404" electricity_normed="0"
            traveltime="8.57" CO_perVeh="510.451595" CO2_perVeh="29028.123290" HC_perVeh="3.009130" PMx_perVeh="0.543083" NOx_perVeh="12.177627" fuel_perVeh="12.477945" electricity_perVeh="0"/>
        <edge id="-gneE54" sampledSeconds="19.60" CO_abs="321.221135" CO2_abs="24198.042189" HC_abs="2.014040" PMx_abs="0.326179" NOx_abs="9.218656" fuel_abs="10.401817" electricity_abs="0"
            CO_normed="24.697075" CO2_normed="1860.465579" HC_normed="0.154849" PMx_normed="0.025078" NOx_normed="0.708776" fuel_normed="0.799743" electricity_normed="0"
            traveltime="9.26" CO_perVeh="151.746850" CO2_perVeh="11431.304698" HC_perVeh="0.951445" PMx_perVeh="0.154089" NOx_perVeh="4.354950" fuel_perVeh="4.913882" electricity_perVeh="0"/>
        <edge id="-gneE60" sampledSeconds="8.46" CO_abs="136.401976" CO2_abs="12494.848617" HC_abs="0.905376" PMx_abs="0.160052" NOx_abs="4.687153" fuel_abs="5.371049" electricity_abs="0"
            CO_normed="10.487261" CO2_normed="960.665974" HC_normed="0.069610" PMx_normed="0.012306" NOx_normed="0.360372" fuel_normed="0.412953" electricity_normed="0"
            traveltime="8.00" CO_perVeh="128.874273" CO2_perVeh="11805.287435" HC_perVeh="0.855411" PMx_perVeh="0.151219" NOx_perVeh="4.428480" fuel_perVeh="5.074634" electricity_perVeh="0"/>
        <edge id="-gneE64" sampledSeconds="9.54" CO_abs="200.773014" CO2_abs="14068.515246" HC_abs="1.233336" PMx_abs="0.185324" NOx_abs="5.343577" fuel_abs="6.047536" electricity_abs="0"
            CO_normed="15.436426" CO2_normed="1081.657274" HC_normed="0.094825" PMx_normed="0.014249" NOx_normed="0.410841" fuel_normed="0.464965" electricity_normed="0"
            traveltime="9.01" CO_perVeh="189.692825" CO2_perVeh="13292.107120" HC_perVeh="1.165271" PMx_perVeh="0.175097" NOx_perVeh="5.048677" fuel_perVeh="5.713787" electricity_perVeh="0"/>
        <edge id="-gneE75" sampledSeconds="6.11" CO_abs="0" CO2_abs="0" HC_abs="0" PMx_abs="0" NOx_abs="0" fuel_abs="0" electricity_abs="0"
            CO_normed="0" CO2_normed="0" HC_normed="0" PMx_normed="0" NOx_normed="0" fuel_normed="0" electricity_normed="0"
            traveltime="5.77" CO_perVeh="0" CO2_perVeh="0" HC_perVeh="0" PMx_perVeh="0" NOx_perVeh="0" fuel_perVeh="0" electricity_perVeh="0"/>
        <edge id="-gneE78" sampledSeconds="9.36" CO_abs="0" CO2_abs="0" HC_abs="0" PMx_abs="0" NOx_abs="0" fuel_abs="0" electricity_abs="0"
            CO_normed="0" CO2_normed="0" HC_normed="0" PMx_normed="0" NOx_normed="0" fuel_normed="0" electricity_normed="0"
            traveltime="8.84" CO_perVeh="0" CO2_perVeh="0" HC_perVeh="0" PMx_perVeh="0" NOx_perVeh="0" fuel_perVeh="0" electricity_perVeh="0"/>
        <edge id="-gneE81" sampledSeconds="7.43" CO_abs="0" CO2_abs="0" HC_abs="0" PMx_abs="0" NOx_abs="0" fuel_abs="0" electricity_abs="0"
            CO_normed="0" CO2_normed="0" HC_normed="0" PMx_normed="0" NOx_normed="0" fuel_normed="0" electricity_normed="0"
            traveltime="7.02" CO_perVeh="0" CO2_perVeh="0" HC_perVeh="0" PMx_perVeh="0" NOx_perVeh="0" fuel_perVeh="0" electricity_perVeh="0"/>
        <edge id="-gneE82" sampledSeconds="6.90" CO_abs="0" CO2_abs="0" HC_abs="0" PMx_abs="0" NOx_abs="0" fuel_abs="0" electricity_abs="0"
            CO_normed="0" CO2_normed="0" HC_normed="0" PMx_normed="0" NOx_normed="0" fuel_normed="0" electricity_normed="0"
            traveltime="6.52" CO_perVeh="0" CO2_perVeh="0" HC_perVeh="0" PMx_perVeh="0" NOx_perVeh="0" fuel_perVeh="0" electricity_perVeh="0"/>
        <edge id="-gneE87" sampledSeconds="17.56" CO_abs="1064.932744" CO2_abs="68084.564143" HC_abs="6.460957" PMx_abs="1.272534" NOx_abs="28.433156" fuel_abs="29.266535" electricity_abs="0"
            CO_normed="81.877315" CO2_normed="5234.679196" HC_normed="0.496750" PMx_normed="0.097839" NOx_normed="2.186082" fuel_normed="2.250156" electricity_normed="0"
            traveltime="8.30" CO_perVeh="503.080811" CO2_perVeh="32163.568933" HC_perVeh="3.052196" PMx_perVeh="0.601153" NOx_perVeh="13.431999" fuel_perVeh="13.825692" electricity_perVeh="0"/>
        <edge id="-gneE93" sampledSeconds="8.16" CO_abs="319.379327" CO2_abs="23146.904922" HC_abs="2.002062" PMx_abs="0.416047" NOx_abs="9.447002" fuel_abs="9.949829" electricity_abs="0"
            CO_normed="24.555468" CO2_normed="1779.648929" HC_normed="0.153928" PMx_normed="0.031988" NOx_normed="0.726332" fuel_normed="0.764992" electricity_normed="0"
            traveltime="7.71" CO_perVeh="301.753537" CO2_perVeh="21869.481913" HC_perVeh="1.891572" PMx_perVeh="0.393087" NOx_perVeh="8.925644" fuel_perVeh="9.400721" electricity_perVeh="0"/>
        <edge id="-gneE94" sampledSeconds="8.86" CO_abs="695.947689" CO2_abs="39650.007427" HC_abs="4.114098" PMx_abs="0.792628" NOx_abs="16.969264" fuel_abs="17.043758" electricity_abs="0"
            CO_normed="53.507912" CO2_normed="3048.489354" HC_normed="0.316312" PMx_normed="0.060941" NOx_normed="1.304681" fuel_normed="1.310409" electricity_normed="0"
            traveltime="8.37" CO_perVeh="657.539979" CO2_perVeh="37461.817172" HC_perVeh="3.887050" PMx_perVeh="0.748885" NOx_perVeh="16.032770" fuel_perVeh="16.103153" electricity_perVeh="0"/>
        <edge id="gneE0" sampledSeconds="17.90" CO_abs="908.310698" CO2_abs="56753.765913" HC_abs="5.478522" PMx_abs="1.057899" NOx_abs="23.672067" fuel_abs="24.395951" electricity_abs="0"
            CO_normed="69.835434" CO2_normed="4363.511193" HC_normed="0.421216" PMx_normed="0.081337" NOx_normed="1.820026" fuel_normed="1.875682" electricity_normed="0"
            traveltime="8.46" CO_perVeh="429.091588" CO2_perVeh="26810.829813" HC_perVeh="2.588088" PMx_perVeh="0.499758" NOx_perVeh="11.182831" fuel_perVeh="11.524798" electricity_perVeh="0"/>
        <edge id="gneE10" sampledSeconds="23.39" CO_abs="294.490251" CO2_abs="25667.034405" HC_abs="1.938855" PMx_abs="0.401928" NOx_abs="10.083334" fuel_abs="11.033161" electricity_abs="0"
            CO_normed="22.641872" CO2_normed="1973.408991" HC_normed="0.149069" PMx_normed="0.030902" NOx_normed="0.775257" fuel_normed="0.848284" electricity_normed="0"
            traveltime="7.37" CO_perVeh="92.746010" CO2_perVeh="8083.510468" HC_perVeh="0.610618" PMx_perVeh="0.126582" NOx_perVeh="3.175620" fuel_perVeh="3.474756" electricity_perVeh="0"/>
        <edge id="gneE100" sampledSeconds="10.04" CO_abs="962.382334" CO2_abs="48497.819613" HC_abs="5.535693" PMx_abs="0.971936" NOx_abs="20.743925" fuel_abs="20.847130" electricity_abs="0"
            CO_normed="73.992730" CO2_normed="3728.753067" HC_normed="0.425612" PMx_normed="0.074727" NOx_normed="1.594896" fuel_normed="1.602831" electricity_normed="0"
            traveltime="10.05" CO_perVeh="963.507927" CO2_perVeh="48554.542209" HC_perVeh="5.542168" PMx_perVeh="0.973073" NOx_perVeh="20.768187" fuel_perVeh="20.871512" electricity_perVeh="0"/>
        <edge id="gneE103" sampledSeconds="11.10" CO_abs="902.517096" CO2_abs="43008.124640" HC_abs="5.126521" PMx_abs="0.840402" NOx_abs="18.280305" fuel_abs="18.487418" electricity_abs="0"
            CO_normed="66.292226" CO2_normed="3159.058515" HC_normed="0.376556" PMx_normed="0.061730" NOx_normed="1.342736" fuel_normed="1.357949" electricity_normed="0"
            traveltime="11.11" CO_perVeh="903.525495" CO2_perVeh="43056.178411" HC_perVeh="5.132249" PMx_perVeh="0.841341" NOx_perVeh="18.300730" fuel_perVeh="18.508074" electricity_perVeh="0"/>
        <edge id="gneE104" sampledSeconds="18.31" CO_abs="1379.168086" CO2_abs="78831.182410" HC_abs="8.137417" PMx_abs="1.451736" NOx_abs="32.792348" fuel_abs="33.886187" electricity_abs="0"
            CO_normed="101.303480" CO2_normed="5790.355198" HC_normed="0.597714" PMx_normed="0.106634" NOx_normed="2.408683" fuel_normed="2.489029" electricity_normed="0"
            traveltime="8.91" CO_perVeh="671.230095" CO2_perVeh="38366.507028" HC_perVeh="3.960416" PMx_perVeh="0.706548" NOx_perVeh="15.959774" fuel_perVeh="16.492137" electricity_perVeh="0"/>
        <edge id="gneE107" sampledSeconds="6.57" CO_abs="0" CO2_abs="0" HC_abs="0" PMx_abs="0" NOx_abs="0" fuel_abs="0" electricity_abs="0"
            CO_normed="0" CO2_normed="0" HC_normed="0" PMx_normed="0" NOx_normed="0" fuel_normed="0" electricity_normed="0"
            traveltime="6.21" CO_perVeh="0" CO2_perVeh="0" HC_perVeh="0" PMx_perVeh="0" NOx_perVeh="0" fuel_perVeh="0" electricity_perVeh="0"/>
        <edge id="gneE108" sampledSeconds="7.03" CO_abs="499.394756" CO2_abs="33987.450014" HC_abs="3.086467" PMx_abs="0.664955" NOx_abs="14.308896" fuel_abs="14.609633" electricity_abs="0"
            CO_normed="38.395947" CO2_normed="2613.123837" HC_normed="0.237303" PMx_normed="0.051125" NOx_normed="1.100139" fuel_normed="1.123261" electricity_normed="0"
            traveltime="6.64" CO_perVeh="471.834339" CO2_perVeh="32111.762927" HC_perVeh="2.916132" PMx_perVeh="0.628257" NOx_perVeh="13.519222" fuel_perVeh="13.803362" electricity_perVeh="0"/>
        <edge id="gneE109" sampledSeconds="318.08" CO_abs="49348.682840" CO2_abs="823760.090564" HC_abs="244.056244" PMx_abs="20.335776" NOx_abs="375.366440" fuel_abs="354.121653" electricity_abs="0"
            CO_normed="3794.171655" CO2_normed="63334.764092" HC_normed="18.764255" PMx_normed="1.563515" NOx_normed="28.860035" fuel_normed="27.226630" electricity_normed="0"
            traveltime="154.53" CO_perVeh="23974.301804" CO2_perVeh="400194.531818" HC_perVeh="118.566043" PMx_perVeh="9.879413" NOx_perVeh="182.358430" fuel_perVeh="172.037406" electricity_perVeh="0"/>
        <edge id="gneE11" sampledSeconds="16.39" CO_abs="266.431308" CO2_abs="23608.361389" HC_abs="1.756377" PMx_abs="0.335518" NOx_abs="9.073525" fuel_abs="10.148272" electricity_abs="0"
            CO_normed="20.484561" CO2_normed="1815.127992" HC_normed="0.135039" PMx_normed="0.025796" NOx_normed="0.697618" fuel_normed="0.780250" electricity_normed="0"
            traveltime="7.74" CO_perVeh="125.863797" CO2_perVeh="11152.735844" HC_perVeh="0.829723" PMx_perVeh="0.158501" NOx_perVeh="4.286389" fuel_perVeh="4.794106" electricity_perVeh="0"/>
        <edge id="gneE112" sampledSeconds="29.27" CO_abs="373.333923" CO2_abs="36087.103817" HC_abs="2.536676" PMx_abs="0.530337" NOx_abs="13.850253" fuel_abs="15.512333" electricity_abs="0"
            CO_normed="28.703765" CO2_normed="2774.555642" HC_normed="0.195032" PMx_normed="0.040775" NOx_normed="1.064876" fuel_normed="1.192665" electricity_normed="0"
            traveltime="6.91" CO_perVeh="88.182626" CO2_perVeh="8523.885449" HC_perVeh="0.599171" PMx_perVeh="0.125267" NOx_perVeh="3.271473" fuel_perVeh="3.664061" electricity_perVeh="0"/>
        <edge id="gneE113" sampledSeconds="21.64" CO_abs="153.989730" CO2_abs="19415.493512" HC_abs="1.142167" PMx_abs="0.227289" NOx_abs="7.038236" fuel_abs="8.345959" electricity_abs="0"
            CO_normed="11.839495" CO2_normed="1492.759500" HC_normed="0.087815" PMx_normed="0.017475" NOx_normed="0.541135" fuel_normed="0.641679" electricity_normed="0"
            traveltime="6.82" CO_perVeh="48.497133" CO2_perVeh="6114.666095" HC_perVeh="0.359711" PMx_perVeh="0.071582" NOx_perVeh="2.216604" fuel_perVeh="2.628455" electricity_perVeh="0"/>
        <edge id="gneE120" sampledSeconds="6.82" CO_abs="0" CO2_abs="0" HC_abs="0" PMx_abs="0" NOx_abs="0" fuel_abs="0" electricity_abs="0"
            CO_normed="0" CO2_normed="0" HC_normed="0" PMx_normed="0" NOx_normed="0" fuel_normed="0" electricity_normed="0"
            traveltime="6.71" CO_perVeh="0" CO2_perVeh="0" HC_perVeh="0" PMx_perVeh="0" NOx_perVeh="0" fuel_perVeh="0" electricity_perVeh="0"/>
        <edge id="gneE122" sampledSeconds="15.87" CO_abs="582.423560" CO2_abs="48811.427843" HC_abs="3.794805" PMx_abs="0.800049" NOx_abs="19.438460" fuel_abs="20.981908" electricity_abs="0"
            CO_normed="41.305334" CO2_normed="3461.694277" HC_normed="0.269127" PMx_normed="0.056739" NOx_normed="1.378571" fuel_normed="1.488032" electricity_normed="0"
            traveltime="7.70" CO_perVeh="282.608235" CO2_perVeh="23684.672805" HC_perVeh="1.841346" PMx_perVeh="0.388206" NOx_perVeh="9.432086" fuel_perVeh="10.181010" electricity_perVeh="0"/>
        <edge id="gneE123" sampledSeconds="15.91" CO_abs="484.151148" CO2_abs="38034.156663" HC_abs="3.105430" PMx_abs="0.681235" NOx_abs="15.507780" fuel_abs="16.349167" electricity_abs="0"
            CO_normed="34.335879" CO2_normed="2697.372896" HC_normed="0.220236" PMx_normed="0.048313" NOx_normed="1.099808" fuel_normed="1.159479" electricity_normed="0"
            traveltime="7.55" CO_perVeh="229.699522" CO2_perVeh="18044.835063" HC_perVeh="1.473333" PMx_perVeh="0.323203" NOx_perVeh="7.357474" fuel_perVeh="7.756660" electricity_perVeh="0"/>
        <edge id="gneE124" sampledSeconds="9.32" CO_abs="431.439613" CO2_abs="28477.863254" HC_abs="2.630130" PMx_abs="0.485612" NOx_abs="11.592792" fuel_abs="12.241430" electricity_abs="0"
            CO_normed="30.597590" CO2_normed="2019.642953" HC_normed="0.186528" PMx_normed="0.034439" NOx_normed="0.822158" fuel_normed="0.868159" electricity_normed="0"
            traveltime="9.07" CO_perVeh="420.079760" CO2_perVeh="27728.037922" HC_perVeh="2.560878" PMx_perVeh="0.472825" NOx_perVeh="11.287553" fuel_perVeh="11.919112" electricity_perVeh="0"/>
        <edge id="gneE19" sampledSeconds="6.41" CO_abs="45.077159" CO2_abs="13136.163445" HC_abs="0.504596" PMx_abs="0.143521" NOx_abs="4.561818" fuel_abs="5.646700" electricity_abs="0"
            CO_normed="3.465756" CO2_normed="1009.973441" HC_normed="0.038796" PMx_normed="0.011035" NOx_normed="0.350735" fuel_normed="0.434146" electricity_normed="0"
            traveltime="6.06" CO_perVeh="42.589457" CO2_perVeh="12411.209612" HC_perVeh="0.476748" PMx_perVeh="0.135600" NOx_perVeh="4.310062" fuel_perVeh="5.335072" electricity_perVeh="0"/>
        <edge id="gneE20" sampledSeconds="6.19" CO_abs="126.341830" CO2_abs="15331.267804" HC_abs="0.935979" PMx_abs="0.240094" NOx_abs="5.888495" fuel_abs="6.590228" electricity_abs="0"
            CO_normed="9.713787" CO2_normed="1178.743958" HC_normed="0.071963" PMx_normed="0.018460" NOx_normed="0.452737" fuel_normed="0.506689" electricity_normed="0"
            traveltime="5.85" CO_perVeh="119.369323" CO2_perVeh="14485.171347" HC_perVeh="0.884325" PMx_perVeh="0.226844" NOx_perVeh="5.563523" fuel_perVeh="6.226529" electricity_perVeh="0"/>
        <edge id="gneE27" sampledSeconds="8.01" CO_abs="0" CO2_abs="0" HC_abs="0" PMx_abs="0" NOx_abs="0" fuel_abs="0" electricity_abs="0"
            CO_normed="0" CO2_normed="0" HC_normed="0" PMx_normed="0" NOx_normed="0" fuel_normed="0" electricity_normed="0"
            traveltime="7.56" CO_perVeh="0" CO2_perVeh="0" HC_perVeh="0" PMx_perVeh="0" NOx_perVeh="0" fuel_perVeh="0" electricity_perVeh="0"/>
        <edge id="gneE41" sampledSeconds="17.06" CO_abs="739.039722" CO2_abs="50757.150017" HC_abs="4.564169" PMx_abs="0.919695" NOx_abs="20.925282" fuel_abs="21.818254" electricity_abs="0"
            CO_normed="56.821042" CO2_normed="3902.461602" HC_normed="0.350916" PMx_normed="0.070711" NOx_normed="1.608840" fuel_normed="1.677496" electricity_normed="0"
            traveltime="8.06" CO_perVeh="349.126933" CO2_perVeh="23977.991399" HC_perVeh="2.156142" PMx_perVeh="0.434470" NOx_perVeh="9.885232" fuel_perVeh="10.307078" electricity_perVeh="0"/>
        <edge id="gneE46" sampledSeconds="16.52" CO_abs="403.491413" CO2_abs="33598.313988" HC_abs="2.615301" PMx_abs="0.509349" NOx_abs="13.147368" fuel_abs="14.442515" electricity_abs="0"
            CO_normed="31.022422" CO2_normed="2583.205128" HC_normed="0.201077" PMx_normed="0.039161" NOx_normed="1.010835" fuel_normed="1.110412" electricity_normed="0"
            traveltime="7.80" CO_perVeh="190.611837" CO2_perVeh="15872.051200" HC_perVeh="1.235484" PMx_perVeh="0.240619" NOx_perVeh="6.210898" fuel_perVeh="6.822733" electricity_perVeh="0"/>
        <edge id="gneE50" sampledSeconds="12.52" CO_abs="107.918966" CO2_abs="25091.739455" HC_abs="1.041561" PMx_abs="0.287608" NOx_abs="8.828991" fuel_abs="10.785905" electricity_abs="0"
            CO_normed="8.297346" CO2_normed="1929.177460" HC_normed="0.080080" PMx_normed="0.022113" NOx_normed="0.678817" fuel_normed="0.829274" electricity_normed="0"
            traveltime="6.08" CO_perVeh="52.428283" CO2_perVeh="12189.857533" HC_perVeh="0.506003" PMx_perVeh="0.139723" NOx_perVeh="4.289226" fuel_perVeh="5.239918" electricity_perVeh="0"/>
        <edge id="gneE53" sampledSeconds="8.01" CO_abs="0" CO2_abs="0" HC_abs="0" PMx_abs="0" NOx_abs="0" fuel_abs="0" electricity_abs="0"
            CO_normed="0" CO2_normed="0" HC_normed="0" PMx_normed="0" NOx_normed="0" fuel_normed="0" electricity_normed="0"
            traveltime="7.57" CO_perVeh="0" CO2_perVeh="0" HC_perVeh="0" PMx_perVeh="0" NOx_perVeh="0" fuel_perVeh="0" electricity_perVeh="0"/>
        <edge id="gneE59" sampledSeconds="15.74" CO_abs="287.715439" CO2_abs="25093.677135" HC_abs="1.897000" PMx_abs="0.398343" NOx_abs="9.806633" fuel_abs="10.786700" electricity_abs="0"
            CO_normed="22.120991" CO2_normed="1929.326438" HC_normed="0.145851" PMx_normed="0.030627" NOx_normed="0.753983" fuel_normed="0.829335" electricity_normed="0"
            traveltime="7.43" CO_perVeh="135.918552" CO2_perVeh="11854.408183" HC_perVeh="0.896155" PMx_perVeh="0.188180" NOx_perVeh="4.632714" fuel_perVeh="5.095704" electricity_perVeh="0"/>
        <edge id="gneE6" sampledSeconds="8.01" CO_abs="0" CO2_abs="0" HC_abs="0" PMx_abs="0" NOx_abs="0" fuel_abs="0" electricity_abs="0"
            CO_normed="0" CO2_normed="0" HC_normed="0" PMx_normed="0" NOx_normed="0" fuel_normed="0" electricity_normed="0"
            traveltime="7.57" CO_perVeh="0" CO2_perVeh="0" HC_perVeh="0" PMx_perVeh="0" NOx_perVeh="0" fuel_perVeh="0" electricity_perVeh="0"/>
        <edge id="gneE60" sampledSeconds="20.20" CO_abs="954.588079" CO2_abs="70150.385852" HC_abs="6.013831" PMx_abs="1.300517" NOx_abs="28.955237" fuel_abs="30.154463" electricity_abs="0"
            CO_normed="73.393469" CO2_normed="5393.509821" HC_normed="0.462373" PMx_normed="0.099990" NOx_normed="2.226222" fuel_normed="2.318425" electricity_normed="0"
            traveltime="6.47" CO_perVeh="305.887545" CO2_perVeh="22478.941191" HC_perVeh="1.927068" PMx_perVeh="0.416737" NOx_perVeh="9.278396" fuel_perVeh="9.662675" electricity_perVeh="0"/>
        <edge id="gneE62" sampledSeconds="6.40" CO_abs="0" CO2_abs="0" HC_abs="0" PMx_abs="0" NOx_abs="0" fuel_abs="0" electricity_abs="0"
            CO_normed="0" CO2_normed="0" HC_normed="0" PMx_normed="0" NOx_normed="0" fuel_normed="0" electricity_normed="0"
            traveltime="6.04" CO_perVeh="0" CO2_perVeh="0" HC_perVeh="0" PMx_perVeh="0" NOx_perVeh="0" fuel_perVeh="0" electricity_perVeh="0"/>
        <edge id="gneE63" sampledSeconds="7.32" CO_abs="0" CO2_abs="0" HC_abs="0" PMx_abs="0" NOx_abs="0" fuel_abs="0" electricity_abs="0"
            CO_normed="0" CO2_normed="0" HC_normed="0" PMx_normed="0" NOx_normed="0" fuel_normed="0" electricity_normed="0"
            traveltime="6.92" CO_perVeh="0" CO2_perVeh="0" HC_perVeh="0" PMx_perVeh="0" NOx_perVeh="0" fuel_perVeh="0" electricity_perVeh="0"/>
        <edge id="gneE64" sampledSeconds="7.29" CO_abs="0" CO2_abs="0" HC_abs="0" PMx_abs="0" NOx_abs="0" fuel_abs="0" electricity_abs="0"
            CO_normed="0" CO2_normed="0" HC_normed="0" PMx_normed="0" NOx_normed="0" fuel_normed="0" electricity_normed="0"
            traveltime="6.89" CO_perVeh="0" CO2_perVeh="0" HC_perVeh="0" PMx_perVeh="0" NOx_perVeh="0" fuel_perVeh="0" electricity_perVeh="0"/>
        <edge id="gneE7" sampledSeconds="8.00" CO_abs="0" CO2_abs="0" HC_abs="0" PMx_abs="0" NOx_abs="0" fuel_abs="0" electricity_abs="0"
            CO_normed="0" CO2_normed="0" HC_normed="0" PMx_normed="0" NOx_normed="0" fuel_normed="0" electricity_normed="0"
            traveltime="7.56" CO_perVeh="0" CO2_perVeh="0" HC_perVeh="0" PMx_perVeh="0" NOx_perVeh="0" fuel_perVeh="0" electricity_perVeh="0"/>
        <edge id="gneE72" sampledSeconds="7.85" CO_abs="0" CO2_abs="0" HC_abs="0" PMx_abs="0" NOx_abs="0" fuel_abs="0" electricity_abs="0"
            CO_normed="0" CO2_normed="0" HC_normed="0" PMx_normed="0" NOx_normed="0" fuel_normed="0" electricity_normed="0"
            traveltime="7.42" CO_perVeh="0" CO2_perVeh="0" HC_perVeh="0" PMx_perVeh="0" NOx_perVeh="0" fuel_perVeh="0" electricity_perVeh="0"/>
        <edge id="gneE75" sampledSeconds="14.58" CO_abs="208.436860" CO2_abs="26060.810794" HC_abs="1.547266" PMx_abs="0.337689" NOx_abs="9.657619" fuel_abs="11.202472" electricity_abs="0"
            CO_normed="16.025660" CO2_normed="2003.684474" HC_normed="0.118961" PMx_normed="0.025963" NOx_normed="0.742526" fuel_normed="0.861302" electricity_normed="0"
            traveltime="6.89" CO_perVeh="98.466861" CO2_perVeh="12311.288101" HC_perVeh="0.730938" PMx_perVeh="0.159526" NOx_perVeh="4.562319" fuel_perVeh="5.292117" electricity_perVeh="0"/>
        <edge id="gneE8" sampledSeconds="8.01" CO_abs="0" CO2_abs="0" HC_abs="0" PMx_abs="0" NOx_abs="0" fuel_abs="0" electricity_abs="0"
            CO_normed="0" CO2_normed="0" HC_normed="0" PMx_normed="0" NOx_normed="0" fuel_normed="0" electricity_normed="0"
            traveltime="7.57" CO_perVeh="0" CO2_perVeh="0" HC_perVeh="0" PMx_perVeh="0" NOx_perVeh="0" fuel_perVeh="0" electricity_perVeh="0"/>
        <edge id="gneE80" sampledSeconds="14.70" CO_abs="200.911828" CO2_abs="22181.295883" HC_abs="1.427493" PMx_abs="0.311882" NOx_abs="8.408811" fuel_abs="9.534807" electricity_abs="0"
            CO_normed="15.447098" CO2_normed="1705.408113" HC_normed="0.109753" PMx_normed="0.023979" NOx_normed="0.646511" fuel_normed="0.733083" electricity_normed="0"
            traveltime="6.95" CO_perVeh="94.911989" CO2_perVeh="10478.581278" HC_perVeh="0.674357" PMx_perVeh="0.147335" NOx_perVeh="3.972374" fuel_perVeh="4.504302" electricity_perVeh="0"/>
        <edge id="gneE81" sampledSeconds="14.52" CO_abs="265.366050" CO2_abs="29749.952201" HC_abs="1.896344" PMx_abs="0.419099" NOx_abs="11.272864" fuel_abs="12.788251" electricity_abs="0"
            CO_normed="20.402659" CO2_normed="2287.323975" HC_normed="0.145800" PMx_normed="0.032222" NOx_normed="0.866714" fuel_normed="0.983224" electricity_normed="0"
            traveltime="6.86" CO_perVeh="125.360562" CO2_perVeh="14054.061305" HC_perVeh="0.895844" PMx_perVeh="0.197985" NOx_perVeh="5.325371" fuel_perVeh="6.041249" electricity_perVeh="0"/>
        <edge id="gneE82" sampledSeconds="16.82" CO_abs="170.373008" CO2_abs="22362.449064" HC_abs="1.281358" PMx_abs="0.248022" NOx_abs="8.011015" fuel_abs="9.612755" electricity_abs="0"