<?xml version="1.0" encoding="UTF-8"?>

<!-- generated on 01/29/21 11:05:11 by Eclipse SUMO GUI Version 1.7.0
<configuration xmlns:xsi="http://www.w3.org/2001/XMLSchema-instance" xsi:noNamespaceSchemaLocation="http://sumo.dlr.de/xsd/sumoConfiguration.xsd">

    <input>
        <net-file value="case1.net.xml"/>
        <route-files value="case1.rou.xml"/>
        <additional-files value="case1.add.xml"/>
    </input>

    <output>
        <emission-output value="emissionOutput.xml"/>
        <tripinfo-output value="tripinfo.xml"/>
    </output>

    <processing>
        <ignore-route-errors value="true"/>
    </processing>

    <traci_server>
        <remote-port value="61191"/>
    </traci_server>

</configuration>
-->

<meandata xmlns:xsi="http://www.w3.org/2001/XMLSchema-instance" xsi:noNamespaceSchemaLocation="http://sumo.dlr.de/xsd/meandata_file.xsd">
    <interval begin="0.00" end="355.00" id="edgeDetector2">
        <edge id="-gneE1" sampledSeconds="6.43" CO_abs="0" CO2_abs="0" HC_abs="0" PMx_abs="0" NOx_abs="0" fuel_abs="0" electricity_abs="0"
            CO_normed="0" CO2_normed="0" HC_normed="0" PMx_normed="0" NOx_normed="0" fuel_normed="0" electricity_normed="0"
            traveltime="6.08" CO_perVeh="0" CO2_perVeh="0" HC_perVeh="0" PMx_perVeh="0" NOx_perVeh="0" fuel_perVeh="0" electricity_perVeh="0"/>
        <edge id="-gneE115" sampledSeconds="11.02" CO_abs="0" CO2_abs="0" HC_abs="0" PMx_abs="0" NOx_abs="0" fuel_abs="0" electricity_abs="0"
            CO_normed="0" CO2_normed="0" HC_normed="0" PMx_normed="0" NOx_normed="0" fuel_normed="0" electricity_normed="0"
            traveltime="11.03" CO_perVeh="0" CO2_perVeh="0" HC_perVeh="0" PMx_perVeh="0" NOx_perVeh="0" fuel_perVeh="0" electricity_perVeh="0"/>
        <edge id="-gneE118" sampledSeconds="9.86" CO_abs="0" CO2_abs="0" HC_abs="0" PMx_abs="0" NOx_abs="0" fuel_abs="0" electricity_abs="0"
            CO_normed="0" CO2_normed="0" HC_normed="0" PMx_normed="0" NOx_normed="0" fuel_normed="0" electricity_normed="0"
            traveltime="9.87" CO_perVeh="0" CO2_perVeh="0" HC_perVeh="0" PMx_perVeh="0" NOx_perVeh="0" fuel_perVeh="0" electricity_perVeh="0"/>
        <edge id="-gneE119" sampledSeconds="50.33" CO_abs="2666.276357" CO2_abs="134392.793675" HC_abs="15.329080" PMx_abs="2.647157" NOx_abs="57.142398" fuel_abs="57.769764" electricity_abs="0"
            CO_normed="291.360942" CO2_normed="14685.953656" HC_normed="1.675106" PMx_normed="0.289272" NOx_normed="6.244313" fuel_normed="6.312869" electricity_normed="0"
            traveltime="10.08" CO_perVeh="533.830520" CO2_perVeh="26907.553944" HC_perVeh="3.069123" PMx_perVeh="0.530002" NOx_perVeh="11.440808" fuel_perVeh="11.566417" electricity_perVeh="0"/>
        <edge id="-gneE12" sampledSeconds="16.57" CO_abs="585.227478" CO2_abs="47320.443818" HC_abs="3.767905" PMx_abs="0.754226" NOx_abs="18.706896" fuel_abs="20.341049" electricity_abs="0"
            CO_normed="69.330621" CO2_normed="5605.949643" HC_normed="0.446376" PMx_normed="0.089351" NOx_normed="2.216165" fuel_normed="2.409760" electricity_normed="0"
            traveltime="7.83" CO_perVeh="276.465078" CO2_perVeh="22354.470148" HC_perVeh="1.779982" PMx_perVeh="0.356301" NOx_perVeh="8.837253" fuel_perVeh="9.609237" electricity_perVeh="0"/>
        <edge id="-gneE13" sampledSeconds="16.47" CO_abs="774.896453" CO2_abs="56048.020383" HC_abs="4.848510" PMx_abs="0.986893" NOx_abs="22.897337" fuel_abs="24.092577" electricity_abs="0"
            CO_normed="91.800291" CO2_normed="6639.886580" HC_normed="0.574392" PMx_normed="0.116915" NOx_normed="2.712598" fuel_normed="2.854195" electricity_normed="0"
            traveltime="7.78" CO_perVeh="366.065874" CO2_perVeh="26477.431263" HC_perVeh="2.290466" PMx_perVeh="0.466214" NOx_perVeh="10.816844" fuel_perVeh="11.381482" electricity_perVeh="0"/>
        <edge id="-gneE14" sampledSeconds="20.26" CO_abs="124.452807" CO2_abs="19589.466225" HC_abs="1.020776" PMx_abs="0.263260" NOx_abs="7.210631" fuel_abs="8.420676" electricity_abs="0"
            CO_normed="14.743652" CO2_normed="2320.721285" HC_normed="0.120929" PMx_normed="0.031188" NOx_normed="0.854228" fuel_normed="0.997579" electricity_normed="0"
            traveltime="6.40" CO_perVeh="39.292454" CO2_perVeh="6184.819982" HC_perVeh="0.322281" PMx_perVeh="0.083117" NOx_perVeh="2.276553" fuel_perVeh="2.658590" electricity_perVeh="0"/>
        <edge id="-gneE18" sampledSeconds="10.17" CO_abs="0" CO2_abs="0" HC_abs="0" PMx_abs="0" NOx_abs="0" fuel_abs="0" electricity_abs="0"
            CO_normed="0" CO2_normed="0" HC_normed="0" PMx_normed="0" NOx_normed="0" fuel_normed="0" electricity_normed="0"
            traveltime="9.61" CO_perVeh="0" CO2_perVeh="0" HC_perVeh="0" PMx_perVeh="0" NOx_perVeh="0" fuel_perVeh="0" electricity_perVeh="0"/>
        <edge id="-gneE2" sampledSeconds="6.44" CO_abs="0" CO2_abs="0" HC_abs="0" PMx_abs="0" NOx_abs="0" fuel_abs="0" electricity_abs="0"
            CO_normed="0" CO2_normed="0" HC_normed="0" PMx_normed="0" NOx_normed="0" fuel_normed="0" electricity_normed="0"
            traveltime="6.08" CO_perVeh="0" CO2_perVeh="0" HC_perVeh="0" PMx_perVeh="0" NOx_perVeh="0" fuel_perVeh="0" electricity_perVeh="0"/>
        <edge id="-gneE24" sampledSeconds="9.29" CO_abs="0" CO2_abs="0" HC_abs="0" PMx_abs="0" NOx_abs="0" fuel_abs="0" electricity_abs="0"
            CO_normed="0" CO2_normed="0" HC_normed="0" PMx_normed="0" NOx_normed="0" fuel_normed="0" electricity_normed="0"
            traveltime="8.78" CO_perVeh="0" CO2_perVeh="0" HC_perVeh="0" PMx_perVeh="0" NOx_perVeh="0" fuel_perVeh="0" electricity_perVeh="0"/>
        <edge id="-gneE25" sampledSeconds="9.21" CO_abs="0" CO2_abs="0" HC_abs="0" PMx_abs="0" NOx_abs="0" fuel_abs="0" electricity_abs="0"
            CO_normed="0" CO2_normed="0" HC_normed="0" PMx_normed="0" NOx_normed="0" fuel_normed="0" electricity_normed="0"
            traveltime="8.70" CO_perVeh="0" CO2_perVeh="0" HC_perVeh="0" PMx_perVeh="0" NOx_perVeh="0" fuel_perVeh="0" electricity_perVeh="0"/>
        <edge id="-gneE33" sampledSeconds="8.22" CO_abs="0" CO2_abs="0" HC_abs="0" PMx_abs="0" NOx_abs="0" fuel_abs="0" electricity_abs="0"
            CO_normed="0" CO2_normed="0" HC_normed="0" PMx_normed="0" NOx_normed="0" fuel_normed="0" electricity_normed="0"
            traveltime="7.77" CO_perVeh="0" CO2_perVeh="0" HC_perVeh="0" PMx_perVeh="0" NOx_perVeh="0" fuel_perVeh="0" electricity_perVeh="0"/>
        <edge id="-gneE45" sampledSeconds="16.79" CO_abs="742.251174" CO2_abs="50777.578191" HC_abs="4.581014" PMx_abs="0.930324" NOx_abs="21.009975" fuel_abs="21.827021" electricity_abs="0"
            CO_normed="87.932876" CO2_normed="6015.508802" HC_normed="0.542703" PMx_normed="0.110213" NOx_normed="2.489006" fuel_normed="2.585800" electricity_normed="0"
            traveltime="7.93" CO_perVeh="350.644043" CO2_perVeh="23987.641794" HC_perVeh="2.164099" PMx_perVeh="0.439491" NOx_perVeh="9.925242" fuel_perVeh="10.311220" electricity_perVeh="0"/>
        <edge id="-gneE5" sampledSeconds="6.32" CO_abs="0" CO2_abs="0" HC_abs="0" PMx_abs="0" NOx_abs="0" fuel_abs="0" electricity_abs="0"
            CO_normed="0" CO2_normed="0" HC_normed="0" PMx_normed="0" NOx_normed="0" fuel_normed="0" electricity_normed="0"
            traveltime="5.97" CO_perVeh="0" CO2_perVeh="0" HC_perVeh="0" PMx_perVeh="0" NOx_perVeh="0" fuel_perVeh="0" electricity_perVeh="0"/>
        <edge id="-gneE53" sampledSeconds="9.12" CO_abs="567.529273" CO2_abs="32900.170181" HC_abs="3.359685" PMx_abs="0.609393" NOx_abs="13.752151" fuel_abs="14.142373" electricity_abs="0"
            CO_normed="67.233954" CO2_normed="3897.611315" HC_normed="0.398015" PMx_normed="0.072193" NOx_normed="1.629187" fuel_normed="1.675416" electricity_normed="0"
            traveltime="8.62" CO_perVeh="536.208673" CO2_perVeh="31084.487500" HC_perVeh="3.174272" PMx_perVeh="0.575762" NOx_perVeh="12.993202" fuel_perVeh="13.361889" electricity_perVeh="0"/>
        <edge id="-gneE54" sampledSeconds="19.60" CO_abs="321.221135" CO2_abs="24198.042189" HC_abs="2.014040" PMx_abs="0.326179" NOx_abs="9.218656" fuel_abs="10.401817" electricity_abs="0"
            CO_normed="38.054366" CO2_normed="2866.689215" HC_normed="0.238599" PMx_normed="0.038642" NOx_normed="1.092114" fuel_normed="1.232281" electricity_normed="0"
            traveltime="9.26" CO_perVeh="151.746850" CO2_perVeh="11431.304698" HC_perVeh="0.951445" PMx_perVeh="0.154089" NOx_perVeh="4.354950" fuel_perVeh="4.913882" electricity_perVeh="0"/>
        <edge id="-gneE60" sampledSeconds="8.49" CO_abs="117.702694" CO2_abs="10339.966790" HC_abs="0.771717" PMx_abs="0.136349" NOx_abs="3.910072" fuel_abs="4.444747" electricity_abs="0"
            CO_normed="13.943981" CO2_normed="1224.953286" HC_normed="0.091424" PMx_normed="0.016153" NOx_normed="0.463218" fuel_normed="0.526559" electricity_normed="0"
            traveltime="8.02" CO_perVeh="111.206961" CO2_perVeh="9769.328446" HC_perVeh="0.729127" PMx_perVeh="0.128824" NOx_perVeh="3.694284" fuel_perVeh="4.199452" electricity_perVeh="0"/>
        <edge id="-gneE64" sampledSeconds="9.52" CO_abs="191.487191" CO2_abs="13528.564245" HC_abs="1.178004" PMx_abs="0.173613" NOx_abs="5.106279" fuel_abs="5.815437" electricity_abs="0"
            CO_normed="22.685069" CO2_normed="1602.699463" HC_normed="0.139556" PMx_normed="0.020568" NOx_normed="0.604930" fuel_normed="0.688942" electricity_normed="0"
            traveltime="8.99" CO_perVeh="180.919465" CO2_perVeh="12781.954740" HC_perVeh="1.112993" PMx_perVeh="0.164032" NOx_perVeh="4.824475" fuel_perVeh="5.494497" electricity_perVeh="0"/>
        <edge id="-gneE75" sampledSeconds="5.98" CO_abs="0" CO2_abs="0" HC_abs="0" PMx_abs="0" NOx_abs="0" fuel_abs="0" electricity_abs="0"
            CO_normed="0" CO2_normed="0" HC_normed="0" PMx_normed="0" NOx_normed="0" fuel_normed="0" electricity_normed="0"
            traveltime="5.65" CO_perVeh="0" CO2_perVeh="0" HC_perVeh="0" PMx_perVeh="0" NOx_perVeh="0" fuel_perVeh="0" electricity_perVeh="0"/>
        <edge id="-gneE78" sampledSeconds="8.30" CO_abs="0" CO2_abs="0" HC_abs="0" PMx_abs="0" NOx_abs="0" fuel_abs="0" electricity_abs="0"
            CO_normed="0" CO2_normed="0" HC_normed="0" PMx_normed="0" NOx_normed="0" fuel_normed="0" electricity_normed="0"
            traveltime="7.84" CO_perVeh="0" CO2_perVeh="0" HC_perVeh="0" PMx_perVeh="0" NOx_perVeh="0" fuel_perVeh="0" electricity_perVeh="0"/>
        <edge id="-gneE81" sampledSeconds="7.42" CO_abs="0" CO2_abs="0" HC_abs="0" PMx_abs="0" NOx_abs="0" fuel_abs="0" electricity_abs="0"
            CO_normed="0" CO2_normed="0" HC_normed="0" PMx_normed="0" NOx_normed="0" fuel_normed="0" electricity_normed="0"
            traveltime="7.01" CO_perVeh="0" CO2_perVeh="0" HC_perVeh="0" PMx_perVeh="0" NOx_perVeh="0" fuel_perVeh="0" electricity_perVeh="0"/>
        <edge id="-gneE82" sampledSeconds="7.03" CO_abs="0" CO2_abs="0" HC_abs="0" PMx_abs="0" NOx_abs="0" fuel_abs="0" electricity_abs="0"
            CO_normed="0" CO2_normed="0" HC_normed="0" PMx_normed="0" NOx_normed="0" fuel_normed="0" electricity_normed="0"
            traveltime="6.64" CO_perVeh="0" CO2_perVeh="0" HC_perVeh="0" PMx_perVeh="0" NOx_perVeh="0" fuel_perVeh="0" electricity_perVeh="0"/>
        <edge id="-gneE87" sampledSeconds="17.68" CO_abs="1059.706805" CO2_abs="65439.435132" HC_abs="6.377522" PMx_abs="1.247796" NOx_abs="27.533149" fuel_abs="28.129500" electricity_abs="0"
            CO_normed="125.541151" CO2_normed="7752.466976" HC_normed="0.755531" PMx_normed="0.147824" NOx_normed="3.261792" fuel_normed="3.332440" electricity_normed="0"
            traveltime="8.35" CO_perVeh="500.612045" CO2_perVeh="30913.993639" HC_perVeh="3.012781" PMx_perVeh="0.589467" NOx_perVeh="13.006830" fuel_perVeh="13.288550" electricity_perVeh="0"/>
        <edge id="-gneE93" sampledSeconds="8.16" CO_abs="319.379327" CO2_abs="23146.904922" HC_abs="2.002062" PMx_abs="0.416047" NOx_abs="9.447002" fuel_abs="9.949829" electricity_abs="0"
            CO_normed="37.836171" CO2_normed="2742.163279" HC_normed="0.237180" PMx_normed="0.049288" NOx_normed="1.119166" fuel_normed="1.178734" electricity_normed="0"
            traveltime="7.71" CO_perVeh="301.753537" CO2_perVeh="21869.481913" HC_perVeh="1.891572" PMx_perVeh="0.393087" NOx_perVeh="8.925644" fuel_perVeh="9.400721" electricity_perVeh="0"/>
        <edge id="-gneE94" sampledSeconds="8.86" CO_abs="695.947689" CO2_abs="39650.007427" HC_abs="4.114098" PMx_abs="0.792628" NOx_abs="16.969264" fuel_abs="17.043758" electricity_abs="0"
            CO_normed="82.447403" CO2_normed="4697.249794" HC_normed="0.487388" PMx_normed="0.093901" NOx_normed="2.010312" fuel_normed="2.019137" electricity_normed="0"
            traveltime="8.37" CO_perVeh="657.539979" CO2_perVeh="37461.817172" HC_perVeh="3.887050" PMx_perVeh="0.748885" NOx_perVeh="16.032770" fuel_perVeh="16.103153" electricity_perVeh="0"/>
        <edge id="gneE0" sampledSeconds="17.92" CO_abs="904.677693" CO2_abs="56587.597567" HC_abs="5.457746" PMx_abs="1.052908" NOx_abs="23.588293" fuel_abs="24.324525" electricity_abs="0"
            CO_normed="107.175191" CO2_normed="6703.809110" HC_normed="0.646567" PMx_normed="0.124736" NOx_normed="2.794454" fuel_normed="2.881673" electricity_normed="0"
            traveltime="8.46" CO_perVeh="427.375334" CO2_perVeh="26732.330860" HC_perVeh="2.578273" PMx_perVeh="0.497400" NOx_perVeh="11.143255" fuel_perVeh="11.491056" electricity_perVeh="0"/>
        <edge id="gneE10" sampledSeconds="23.39" CO_abs="294.490251" CO2_abs="25667.034405" HC_abs="1.938855" PMx_abs="0.401928" NOx_abs="10.083334" fuel_abs="11.033161" electricity_abs="0"
            CO_normed="34.887617" CO2_normed="3040.717515" HC_normed="0.229692" PMx_normed="0.047616" NOx_normed="1.194551" fuel_normed="1.307075" electricity_normed="0"
            traveltime="7.37" CO_perVeh="92.746010" CO2_perVeh="8083.510468" HC_perVeh="0.610618" PMx_perVeh="0.126582" NOx_perVeh="3.175620" fuel_perVeh="3.474756" electricity_perVeh="0"/>
        <edge id="gneE100" sampledSeconds="10.04" CO_abs="962.382334" CO2_abs="48497.819613" HC_abs="5.535693" PMx_abs="0.971936" NOx_abs="20.743925" fuel_abs="20.847130" electricity_abs="0"
            CO_normed="114.011333" CO2_normed="5745.430782" HC_normed="0.655802" PMx_normed="0.115143" NOx_normed="2.457487" fuel_normed="2.469714" electricity_normed="0"
            traveltime="10.05" CO_perVeh="963.507927" CO2_perVeh="48554.542209" HC_perVeh="5.542168" PMx_perVeh="0.973073" NOx_perVeh="20.768187" fuel_perVeh="20.871512" electricity_perVeh="0"/>
        <edge id="gneE103" sampledSeconds="11.10" CO_abs="902.517096" CO2_abs="43008.124640" HC_abs="5.126521" PMx_abs="0.840402" NOx_abs="18.280305" fuel_abs="18.487418" electricity_abs="0"
            CO_normed="102.146050" CO2_normed="4867.619740" HC_normed="0.580215" PMx_normed="0.095116" NOx_normed="2.068948" fuel_normed="2.092389" electricity_normed="0"
            traveltime="11.11" CO_perVeh="903.525495" CO2_perVeh="43056.178411" HC_perVeh="5.132249" PMx_perVeh="0.841341" NOx_perVeh="18.300730" fuel_perVeh="18.508074" electricity_perVeh="0"/>
        <edge id="gneE104" sampledSeconds="18.31" CO_abs="1379.168086" CO2_abs="78831.182410" HC_abs="8.137417" PMx_abs="1.451736" NOx_abs="32.792348" fuel_abs="33.886187" electricity_abs="0"
            CO_normed="156.092967" CO2_normed="8922.040263" HC_normed="0.920985" PMx_normed="0.164306" NOx_normed="3.711408" fuel_normed="3.835207" electricity_normed="0"
            traveltime="8.91" CO_perVeh="671.230095" CO2_perVeh="38366.507028" HC_perVeh="3.960416" PMx_perVeh="0.706548" NOx_perVeh="15.959774" fuel_perVeh="16.492137" electricity_perVeh="0"/>
        <edge id="gneE107" sampledSeconds="6.57" CO_abs="0" CO2_abs="0" HC_abs="0" PMx_abs="0" NOx_abs="0" fuel_abs="0" electricity_abs="0"
            CO_normed="0" CO2_normed="0" HC_normed="0" PMx_normed="0" NOx_normed="0" fuel_normed="0" electricity_normed="0"
            traveltime="6.21" CO_perVeh="0" CO2_perVeh="0" HC_perVeh="0" PMx_perVeh="0" NOx_perVeh="0" fuel_perVeh="0" electricity_perVeh="0"/>
        <edge id="gneE108" sampledSeconds="7.03" CO_abs="499.394756" CO2_abs="33987.450014" HC_abs="3.086467" PMx_abs="0.664955" NOx_abs="14.308896" fuel_abs="14.609633" electricity_abs="0"
            CO_normed="59.162206" CO2_normed="4026.418983" HC_normed="0.365647" PMx_normed="0.078776" NOx_normed="1.695144" fuel_normed="1.730771" electricity_normed="0"
            traveltime="6.64" CO_perVeh="471.834339" CO2_perVeh="32111.762927" HC_perVeh="2.916132" PMx_perVeh="0.628257" NOx_perVeh="13.519222" fuel_perVeh="13.803362" electricity_perVeh="0"/>
        <edge id="gneE109" sampledSeconds="18.59" CO_abs="794.124410" CO2_abs="53379.131379" HC_abs="4.875150" PMx_abs="0.949289" NOx_abs="21.745377" fuel_abs="22.945385" electricity_abs="0"
            CO_normed="94.078185" CO2_normed="6323.709127" HC_normed="0.577548" PMx_normed="0.112460" NOx_normed="2.576127" fuel_normed="2.718290" electricity_normed="0"
            traveltime="8.78" CO_perVeh="375.149280" CO2_perVeh="25216.631601" HC_perVeh="2.303051" PMx_perVeh="0.448450" NOx_perVeh="10.272650" fuel_perVeh="10.839542" electricity_perVeh="0"/>
        <edge id="gneE11" sampledSeconds="16.39" CO_abs="266.431308" CO2_abs="23608.361389" HC_abs="1.756377" PMx_abs="0.335518" NOx_abs="9.073525" fuel_abs="10.148272" electricity_abs="0"
            CO_normed="31.563535" CO2_normed="2796.831019" HC_normed="0.208074" PMx_normed="0.039748" NOx_normed="1.074921" fuel_normed="1.202244" electricity_normed="0"
            traveltime="7.74" CO_perVeh="125.863797" CO2_perVeh="11152.735844" HC_perVeh="0.829723" PMx_perVeh="0.158501" NOx_perVeh="4.286389" fuel_perVeh="4.794106" electricity_perVeh="0"/>
        <edge id="gneE112" sampledSeconds="37.13" CO_abs="373.333923" CO2_abs="36087.103817" HC_abs="2.536676" PMx_abs="0.530337" NOx_abs="13.850253" fuel_abs="15.512333" electricity_abs="0"
            CO_normed="44.228055" CO2_normed="4275.160384" HC_normed="0.300514" PMx_normed="0.062828" NOx_normed="1.640809" fuel_normed="1.837712" electricity_normed="0"
            traveltime="7.02" CO_perVeh="70.546101" CO2_perVeh="6819.108359" HC_perVeh="0.479337" PMx_perVeh="0.100214" NOx_perVeh="2.617178" fuel_perVeh="2.931249" electricity_perVeh="0"/>
        <edge id="gneE113" sampledSeconds="29.29" CO_abs="153.989730" CO2_abs="19415.493512" HC_abs="1.142167" PMx_abs="0.227289" NOx_abs="7.038236" fuel_abs="8.345959" electricity_abs="0"
            CO_normed="18.242827" CO2_normed="2300.111118" HC_normed="0.135310" PMx_normed="0.026926" NOx_normed="0.833804" fuel_normed="0.988728" electricity_normed="0"
            traveltime="6.92" CO_perVeh="36.372850" CO2_perVeh="4585.999571" HC_perVeh="0.269783" PMx_perVeh="0.053686" NOx_perVeh="1.662453" fuel_perVeh="1.971341" electricity_perVeh="0"/>
        <edge id="gneE120" sampledSeconds="6.83" CO_abs="0" CO2_abs="0" HC_abs="0" PMx_abs="0" NOx_abs="0" fuel_abs="0" electricity_abs="0"
            CO_normed="0" CO2_normed="0" HC_normed="0" PMx_normed="0" NOx_normed="0" fuel_normed="0" electricity_normed="0"
            traveltime="6.65" CO_perVeh="0" CO2_perVeh="0" HC_perVeh="0" PMx_perVeh="0" NOx_perVeh="0" fuel_perVeh="0" electricity_perVeh="0"/>
        <edge id="gneE122" sampledSeconds="15.91" CO_abs="635.617160" CO2_abs="51091.505202" HC_abs="4.094166" PMx_abs="0.863683" NOx_abs="20.549813" fuel_abs="21.961993" electricity_abs="0"
            CO_normed="69.457922" CO2_normed="5583.093089" HC_normed="0.447395" PMx_normed="0.094380" NOx_normed="2.245609" fuel_normed="2.399926" electricity_normed="0"
            traveltime="7.72" CO_perVeh="308.419260" CO2_perVeh="24791.030243" HC_perVeh="1.986604" PMx_perVeh="0.419083" NOx_perVeh="9.971345" fuel_perVeh="10.656574" electricity_perVeh="0"/>
        <edge id="gneE123" sampledSeconds="15.91" CO_abs="484.151148" CO2_abs="38034.156663" HC_abs="3.105430" PMx_abs="0.681235" NOx_abs="15.507780" fuel_abs="16.349167" electricity_abs="0"
            CO_normed="52.906269" CO2_normed="4156.233730" HC_normed="0.339350" PMx_normed="0.074443" NOx_normed="1.694634" fuel_normed="1.786577" electricity_normed="0"
            traveltime="7.55" CO_perVeh="229.699522" CO2_perVeh="18044.835063" HC_perVeh="1.473333" PMx_perVeh="0.323203" NOx_perVeh="7.357474" fuel_perVeh="7.756660" electricity_perVeh="0"/>
        <edge id="gneE124" sampledSeconds="9.29" CO_abs="431.439613" CO2_abs="28477.863254" HC_abs="2.630130" PMx_abs="0.485612" NOx_abs="11.592792" fuel_abs="12.241430" electricity_abs="0"
            CO_normed="47.146145" CO2_normed="3111.956888" HC_normed="0.287411" PMx_normed="0.053066" NOx_normed="1.266818" fuel_normed="1.337699" electricity_normed="0"
            traveltime="9.06" CO_perVeh="420.947910" CO2_perVeh="27785.341600" HC_perVeh="2.566171" PMx_perVeh="0.473802" NOx_perVeh="11.310880" fuel_perVeh="11.943744" electricity_perVeh="0"/>
        <edge id="gneE19" sampledSeconds="13.68" CO_abs="545.748496" CO2_abs="46856.311830" HC_abs="3.588076" PMx_abs="0.793526" NOx_abs="18.720197" fuel_abs="20.141449" electricity_abs="0"
            CO_normed="64.653632" CO2_normed="5550.964940" HC_normed="0.425072" PMx_normed="0.094007" NOx_normed="2.217741" fuel_normed="2.386114" electricity_normed="0"
            traveltime="6.46" CO_perVeh="257.814963" CO2_perVeh="22135.211328" HC_perVeh="1.695029" PMx_perVeh="0.374867" NOx_perVeh="8.843537" fuel_perVeh="9.514945" electricity_perVeh="0"/>
        <edge id="gneE20" sampledSeconds="12.83" CO_abs="212.052997" CO2_abs="28866.241518" HC_abs="1.638969" PMx_abs="0.417420" NOx_abs="10.851694" fuel_abs="12.408342" electricity_abs="0"
            CO_normed="25.121456" CO2_normed="3419.720596" HC_normed="0.194165" PMx_normed="0.049451" NOx_normed="1.285576" fuel_normed="1.469989" electricity_normed="0"
            traveltime="6.06" CO_perVeh="100.175147" CO2_perVeh="13636.590916" HC_perVeh="0.774259" PMx_perVeh="0.197192" NOx_perVeh="5.126407" fuel_perVeh="5.861778" electricity_perVeh="0"/>
        <edge id="gneE22" sampledSeconds="8.51" CO_abs="0" CO2_abs="0" HC_abs="0" PMx_abs="0" NOx_abs="0" fuel_abs="0" electricity_abs="0"
            CO_normed="0" CO2_normed="0" HC_normed="0" PMx_normed="0" NOx_normed="0" fuel_normed="0" electricity_normed="0"
            traveltime="8.04" CO_perVeh="0" CO2_perVeh="0" HC_perVeh="0" PMx_perVeh="0" NOx_perVeh="0" fuel_perVeh="0" electricity_perVeh="0"/>
        <edge id="gneE27" sampledSeconds="8.12" CO_abs="0" CO2_abs="0" HC_abs="0" PMx_abs="0" NOx_abs="0" fuel_abs="0" electricity_abs="0"
            CO_normed="0" CO2_normed="0" HC_normed="0" PMx_normed="0" NOx_normed="0" fuel_normed="0" electricity_normed="0"
            traveltime="7.67" CO_perVeh="0" CO2_perVeh="0" HC_perVeh="0" PMx_perVeh="0" NOx_perVeh="0" fuel_perVeh="0" electricity_perVeh="0"/>
        <edge id="gneE41" sampledSeconds="17.13" CO_abs="668.315725" CO2_abs="47146.415112" HC_abs="4.151832" PMx_abs="0.823711" NOx_abs="19.217050" fuel_abs="20.266193" electricity_abs="0"
            CO_normed="79.173904" CO2_normed="5585.332842" HC_normed="0.491858" PMx_normed="0.097583" NOx_normed="2.276602" fuel_normed="2.400892" electricity_normed="0"
            traveltime="8.09" CO_perVeh="315.716479" CO2_perVeh="22272.257912" HC_perVeh="1.961351" PMx_perVeh="0.389126" NOx_perVeh="9.078253" fuel_perVeh="9.573875" electricity_perVeh="0"/>
        <edge id="gneE46" sampledSeconds="16.52" CO_abs="403.491413" CO2_abs="33598.313988" HC_abs="2.615301" PMx_abs="0.509349" NOx_abs="13.147368" fuel_abs="14.442515" electricity_abs="0"
            CO_normed="47.800747" CO2_normed="3980.318888" HC_normed="0.309829" PMx_normed="0.060341" NOx_normed="1.557540" fuel_normed="1.710973" electricity_normed="0"
            traveltime="7.80" CO_perVeh="190.611837" CO2_perVeh="15872.051200" HC_perVeh="1.235484" PMx_perVeh="0.240619" NOx_perVeh="6.210898" fuel_perVeh="6.822733" electricity_perVeh="0"/>
        <edge id="gneE50" sampledSeconds="12.91" CO_abs="127.448427" CO2_abs="27450.872518" HC_abs="1.185565" PMx_abs="0.322735" NOx_abs="9.728049" fuel_abs="11.799994" electricity_abs="0"
            CO_normed="15.098537" CO2_normed="3252.044921" HC_normed="0.140451" PMx_normed="0.038234" NOx_normed="1.152461" fuel_normed="1.397919" electricity_normed="0"
            traveltime="6.10" CO_perVeh="60.207425" CO2_perVeh="12967.961852" HC_perVeh="0.560068" PMx_perVeh="0.152462" NOx_perVeh="4.595590" fuel_perVeh="5.574390" electricity_perVeh="0"/>
        <edge id="gneE53" sampledSeconds="8.01" CO_abs="0" CO2_abs="0" HC_abs="0" PMx_abs="0" NOx_abs="0" fuel_abs="0" electricity_abs="0"
            CO_normed="0" CO2_normed="0" HC_normed="0" PMx_normed="0" NOx_normed="0" fuel_normed="0" electricity_normed="0"
            traveltime="7.57" CO_perVeh="0" CO2_perVeh="0" HC_perVeh="0" PMx_perVeh="0" NOx_perVeh="0" fuel_perVeh="0" electricity_perVeh="0"/>
        <edge id="gneE59" sampledSeconds="15.63" CO_abs="276.758779" CO2_abs="25427.730985" HC_abs="1.855046" PMx_abs="0.400627" NOx_abs="9.900831" fuel_abs="10.930289" electricity_abs="0"
            CO_normed="32.787008" CO2_normed="3012.367762" HC_normed="0.219763" PMx_normed="0.047461" NOx_normed="1.172930" fuel_normed="1.294887" electricity_normed="0"
            traveltime="7.38" CO_perVeh="130.742558" CO2_perVeh="12012.217287" HC_perVeh="0.876335" PMx_perVeh="0.189258" NOx_perVeh="4.677214" fuel_perVeh="5.163536" electricity_perVeh="0"/>
        <edge id="gneE6" sampledSeconds="8.05" CO_abs="0" CO2_abs="0" HC_abs="0" PMx_abs="0" NOx_abs="0" fuel_abs="0" electricity_abs="0"
            CO_normed="0" CO2_normed="0" HC_normed="0" PMx_normed="0" NOx_normed="0" fuel_normed="0" electricity_normed="0"
            traveltime="7.61" CO_perVeh="0" CO2_perVeh="0" HC_perVeh="0" PMx_perVeh="0" NOx_perVeh="0" fuel_perVeh="0" electricity_perVeh="0"/>
        <edge id="gneE60" sampledSeconds="20.33" CO_abs="1006.228263" CO2_abs="72254.968702" HC_abs="6.300486" PMx_abs="1.353064" NOx_abs="29.938461" fuel_abs="31.059124" electricity_abs="0"
            CO_normed="119.205665" CO2_normed="8559.888355" HC_normed="0.746405" PMx_normed="0.160295" NOx_normed="3.546744" fuel_normed="3.679507" electricity_normed="0"
            traveltime="6.51" CO_perVeh="322.435090" CO2_perVeh="23153.332266" HC_perVeh="2.018923" PMx_perVeh="0.433575" NOx_perVeh="9.593460" fuel_perVeh="9.952564" electricity_perVeh="0"/>
        <edge id="gneE62" sampledSeconds="6.40" CO_abs="0" CO2_abs="0" HC_abs="0" PMx_abs="0" NOx_abs="0" fuel_abs="0" electricity_abs="0"
            CO_normed="0" CO2_normed="0" HC_normed="0" PMx_normed="0" NOx_normed="0" fuel_normed="0" electricity_normed="0"
            traveltime="6.04" CO_perVeh="0" CO2_perVeh="0" HC_perVeh="0" PMx_perVeh="0" NOx_perVeh="0" fuel_perVeh="0" electricity_perVeh="0"/>
        <edge id="gneE63" sampledSeconds="7.32" CO_abs="0" CO2_abs="0" HC_abs="0" PMx_abs="0" NOx_abs="0" fuel_abs="0" electricity_abs="0"
            CO_normed="0" CO2_normed="0" HC_normed="0" PMx_normed="0" NOx_normed="0" fuel_normed="0" electricity_normed="0"
            traveltime="6.92" CO_perVeh="0" CO2_perVeh="0" HC_perVeh="0" PMx_perVeh="0" NOx_perVeh="0" fuel_perVeh="0" electricity_perVeh="0"/>
        <edge id="gneE64" sampledSeconds="7.29" CO_abs="0" CO2_abs="0" HC_abs="0" PMx_abs="0" NOx_abs="0" fuel_abs="0" electricity_abs="0"
            CO_normed="0" CO2_normed="0" HC_normed="0" PMx_normed="0" NOx_normed="0" fuel_normed="0" electricity_normed="0"
            traveltime="6.89" CO_perVeh="0" CO2_perVeh="0" HC_perVeh="0" PMx_perVeh="0" NOx_perVeh="0" fuel_perVeh="0" electricity_perVeh="0"/>
        <edge id="gneE7" sampledSeconds="7.96" CO_abs="0" CO2_abs="0" HC_abs="0" PMx_abs="0" NOx_abs="0" fuel_abs="0" electricity_abs="0"
            CO_normed="0" CO2_normed="0" HC_normed="0" PMx_normed="0" NOx_normed="0" fuel_normed="0" electricity_normed="0"
            traveltime="7.52" CO_perVeh="0" CO2_perVeh="0" HC_perVeh="0" PMx_perVeh="0" NOx_perVeh="0" fuel_perVeh="0" electricity_perVeh="0"/>
        <edge id="gneE72" sampledSeconds="7.31" CO_abs="0" CO2_abs="0" HC_abs="0" PMx_abs="0" NOx_abs="0" fuel_abs="0" electricity_abs="0"
            CO_normed="0" CO2_normed="0" HC_normed="0" PMx_normed="0" NOx_normed="0" fuel_normed="0" electricity_normed="0"
            traveltime="6.90" CO_perVeh="0" CO2_perVeh="0" HC_perVeh="0" PMx_perVeh="0" NOx_perVeh="0" fuel_perVeh="0" electricity_perVeh="0"/>
        <edge id="gneE75" sampledSeconds="14.51" CO_abs="174.387889" CO2_abs="22365.978936" HC_abs="1.307370" PMx_abs="0.288181" NOx_abs="8.269419" fuel_abs="9.614215" electricity_abs="0"
            CO_normed="20.659352" CO2_normed="2649.648683" HC_normed="0.154881" PMx_normed="0.034140" NOx_normed="0.979660" fuel_normed="1.138975" electricity_normed="0"
            traveltime="6.86" CO_perVeh="82.381917" CO2_perVeh="10565.826694" HC_perVeh="0.617610" PMx_perVeh="0.136139" NOx_perVeh="3.906525" fuel_perVeh="4.541815" electricity_perVeh="0"/>
        <edge id="gneE8" sampledSeconds="7.86" CO_abs="0" CO2_abs="0" HC_abs="0" PMx_abs="0" NOx_abs="0" fuel_abs="0" electricity_abs="0"
            CO_normed="0" CO2_normed="0" HC_normed="0" PMx_normed="0" NOx_normed="0" fuel_normed="0" electricity_normed="0"
            traveltime="7.43" CO_perVeh="0" CO2_perVeh="0" HC_perVeh="0" PMx_perVeh="0" NOx_perVeh="0" fuel_perVeh="0" electricity_perVeh="0"/>
        <edge id="gneE80" sampledSeconds="14.70" CO_abs="200.911828" CO2_abs="22181.295883" HC_abs="1.427493" PMx_abs="0.311882" NOx_abs="8.408811" fuel_abs="9.534807" electricity_abs="0"
            CO_normed="23.801586" CO2_normed="2627.769685" HC_normed="0.169112" PMx_normed="0.036948" NOx_normed="0.996173" fuel_normed="1.129568" electricity_normed="0"
            traveltime="6.95" CO_perVeh="94.911989" CO2_perVeh="10478.581278" HC_perVeh="0.674357" PMx_perVeh="0.147335" NOx_perVeh="3.972374" fuel_perVeh="4.504302" electricity_perVeh="0"/>