<?xml version="1.0" encoding="UTF-8"?>

<!-- generated on 01/28/21 11:57:18 by Eclipse SUMO GUI Version 1.7.0
<configuration xmlns:xsi="http://www.w3.org/2001/XMLSchema-instance" xsi:noNamespaceSchemaLocation="http://sumo.dlr.de/xsd/sumoConfiguration.xsd">

    <input>
        <net-file value="case1.net.xml"/>
        <route-files value="case1.rou.xml"/>
        <additional-files value="case1.add.xml"/>
    </input>

    <output>
        <emission-output value="emissionOutput.xml"/>
        <tripinfo-output value="tripinfo.xml"/>
    </output>

    <processing>
        <ignore-route-errors value="true"/>
    </processing>

    <traci_server>
        <remote-port value="51915"/>
    </traci_server>

</configuration>
-->

<meandata xmlns:xsi="http://www.w3.org/2001/XMLSchema-instance" xsi:noNamespaceSchemaLocation="http://sumo.dlr.de/xsd/meandata_file.xsd">
    <interval begin="0.00" end="355.00" id="edgeDetector2">
        <edge id="-gneE1" sampledSeconds="6.43" CO_abs="0" CO2_abs="0" HC_abs="0" PMx_abs="0" NOx_abs="0" fuel_abs="0" electricity_abs="0"
            CO_normed="0" CO2_normed="0" HC_normed="0" PMx_normed="0" NOx_normed="0" fuel_normed="0" electricity_normed="0"
            traveltime="6.08" CO_perVeh="0" CO2_perVeh="0" HC_perVeh="0" PMx_perVeh="0" NOx_perVeh="0" fuel_perVeh="0" electricity_perVeh="0"/>
        <edge id="-gneE115" sampledSeconds="11.02" CO_abs="0" CO2_abs="0" HC_abs="0" PMx_abs="0" NOx_abs="0" fuel_abs="0" electricity_abs="0"
            CO_normed="0" CO2_normed="0" HC_normed="0" PMx_normed="0" NOx_normed="0" fuel_normed="0" electricity_normed="0"
            traveltime="11.03" CO_perVeh="0" CO2_perVeh="0" HC_perVeh="0" PMx_perVeh="0" NOx_perVeh="0" fuel_perVeh="0" electricity_perVeh="0"/>
        <edge id="-gneE118" sampledSeconds="9.86" CO_abs="0" CO2_abs="0" HC_abs="0" PMx_abs="0" NOx_abs="0" fuel_abs="0" electricity_abs="0"
            CO_normed="0" CO2_normed="0" HC_normed="0" PMx_normed="0" NOx_normed="0" fuel_normed="0" electricity_normed="0"
            traveltime="9.87" CO_perVeh="0" CO2_perVeh="0" HC_perVeh="0" PMx_perVeh="0" NOx_perVeh="0" fuel_perVeh="0" electricity_perVeh="0"/>
        <edge id="-gneE119" sampledSeconds="50.33" CO_abs="2666.276357" CO2_abs="134392.793675" HC_abs="15.329080" PMx_abs="2.647157" NOx_abs="57.142398" fuel_abs="57.769764" electricity_abs="0"
            CO_normed="291.360942" CO2_normed="14685.953656" HC_normed="1.675106" PMx_normed="0.289272" NOx_normed="6.244313" fuel_normed="6.312869" electricity_normed="0"
            traveltime="10.08" CO_perVeh="533.830520" CO2_perVeh="26907.553944" HC_perVeh="3.069123" PMx_perVeh="0.530002" NOx_perVeh="11.440808" fuel_perVeh="11.566417" electricity_perVeh="0"/>
        <edge id="-gneE12" sampledSeconds="16.56" CO_abs="588.796645" CO2_abs="47491.144418" HC_abs="3.788441" PMx_abs="0.758938" NOx_abs="18.789565" fuel_abs="20.414424" electricity_abs="0"
            CO_normed="69.753453" CO2_normed="5626.172170" HC_normed="0.448808" PMx_normed="0.089910" NOx_normed="2.225959" fuel_normed="2.418452" electricity_normed="0"
            traveltime="7.82" CO_perVeh="278.151174" CO2_perVeh="22435.110167" HC_perVeh="1.789683" PMx_perVeh="0.358527" NOx_perVeh="8.876307" fuel_perVeh="9.643900" electricity_perVeh="0"/>
        <edge id="-gneE13" sampledSeconds="16.49" CO_abs="737.742574" CO2_abs="56378.698529" HC_abs="4.680495" PMx_abs="0.947710" NOx_abs="22.689761" fuel_abs="24.234759" electricity_abs="0"
            CO_normed="87.398752" CO2_normed="6679.061297" HC_normed="0.554488" PMx_normed="0.112273" NOx_normed="2.688006" fuel_normed="2.871039" electricity_normed="0"
            traveltime="7.79" CO_perVeh="348.514152" CO2_perVeh="26633.645663" HC_perVeh="2.211095" PMx_perVeh="0.447704" NOx_perVeh="10.718783" fuel_perVeh="11.448650" electricity_perVeh="0"/>
        <edge id="-gneE14" sampledSeconds="20.27" CO_abs="147.004277" CO2_abs="20469.373953" HC_abs="1.145885" PMx_abs="0.290291" NOx_abs="7.658601" fuel_abs="8.798900" electricity_abs="0"
            CO_normed="17.415276" CO2_normed="2424.962032" HC_normed="0.135751" PMx_normed="0.034390" NOx_normed="0.907298" fuel_normed="1.042386" electricity_normed="0"
            traveltime="6.40" CO_perVeh="46.412443" CO2_perVeh="6462.625964" HC_perVeh="0.361781" PMx_perVeh="0.091651" NOx_perVeh="2.417987" fuel_perVeh="2.778004" electricity_perVeh="0"/>
        <edge id="-gneE18" sampledSeconds="10.30" CO_abs="0" CO2_abs="0" HC_abs="0" PMx_abs="0" NOx_abs="0" fuel_abs="0" electricity_abs="0"
            CO_normed="0" CO2_normed="0" HC_normed="0" PMx_normed="0" NOx_normed="0" fuel_normed="0" electricity_normed="0"
            traveltime="9.73" CO_perVeh="0" CO2_perVeh="0" HC_perVeh="0" PMx_perVeh="0" NOx_perVeh="0" fuel_perVeh="0" electricity_perVeh="0"/>
        <edge id="-gneE2" sampledSeconds="6.44" CO_abs="0" CO2_abs="0" HC_abs="0" PMx_abs="0" NOx_abs="0" fuel_abs="0" electricity_abs="0"
            CO_normed="0" CO2_normed="0" HC_normed="0" PMx_normed="0" NOx_normed="0" fuel_normed="0" electricity_normed="0"
            traveltime="6.08" CO_perVeh="0" CO2_perVeh="0" HC_perVeh="0" PMx_perVeh="0" NOx_perVeh="0" fuel_perVeh="0" electricity_perVeh="0"/>
        <edge id="-gneE24" sampledSeconds="9.29" CO_abs="0" CO2_abs="0" HC_abs="0" PMx_abs="0" NOx_abs="0" fuel_abs="0" electricity_abs="0"
            CO_normed="0" CO2_normed="0" HC_normed="0" PMx_normed="0" NOx_normed="0" fuel_normed="0" electricity_normed="0"
            traveltime="8.78" CO_perVeh="0" CO2_perVeh="0" HC_perVeh="0" PMx_perVeh="0" NOx_perVeh="0" fuel_perVeh="0" electricity_perVeh="0"/>
        <edge id="-gneE25" sampledSeconds="9.21" CO_abs="0" CO2_abs="0" HC_abs="0" PMx_abs="0" NOx_abs="0" fuel_abs="0" electricity_abs="0"
            CO_normed="0" CO2_normed="0" HC_normed="0" PMx_normed="0" NOx_normed="0" fuel_normed="0" electricity_normed="0"
            traveltime="8.70" CO_perVeh="0" CO2_perVeh="0" HC_perVeh="0" PMx_perVeh="0" NOx_perVeh="0" fuel_perVeh="0" electricity_perVeh="0"/>
        <edge id="-gneE33" sampledSeconds="8.22" CO_abs="0" CO2_abs="0" HC_abs="0" PMx_abs="0" NOx_abs="0" fuel_abs="0" electricity_abs="0"
            CO_normed="0" CO2_normed="0" HC_normed="0" PMx_normed="0" NOx_normed="0" fuel_normed="0" electricity_normed="0"
            traveltime="7.77" CO_perVeh="0" CO2_perVeh="0" HC_perVeh="0" PMx_perVeh="0" NOx_perVeh="0" fuel_perVeh="0" electricity_perVeh="0"/>
        <edge id="-gneE45" sampledSeconds="16.79" CO_abs="740.593928" CO2_abs="50706.003219" HC_abs="4.571671" PMx_abs="0.928306" NOx_abs="20.974855" fuel_abs="21.796255" electricity_abs="0"
            CO_normed="87.736545" CO2_normed="6007.029472" HC_normed="0.541596" PMx_normed="0.109974" NOx_normed="2.484845" fuel_normed="2.582155" electricity_normed="0"
            traveltime="7.93" CO_perVeh="349.861149" CO2_perVeh="23953.829335" HC_perVeh="2.159686" PMx_perVeh="0.438537" NOx_perVeh="9.908651" fuel_perVeh="10.296686" electricity_perVeh="0"/>
        <edge id="-gneE5" sampledSeconds="6.32" CO_abs="0" CO2_abs="0" HC_abs="0" PMx_abs="0" NOx_abs="0" fuel_abs="0" electricity_abs="0"
            CO_normed="0" CO2_normed="0" HC_normed="0" PMx_normed="0" NOx_normed="0" fuel_normed="0" electricity_normed="0"
            traveltime="5.97" CO_perVeh="0" CO2_perVeh="0" HC_perVeh="0" PMx_perVeh="0" NOx_perVeh="0" fuel_perVeh="0" electricity_perVeh="0"/>
        <edge id="-gneE53" sampledSeconds="9.05" CO_abs="559.003531" CO2_abs="33430.261336" HC_abs="3.330429" PMx_abs="0.599658" NOx_abs="13.827270" fuel_abs="14.370253" electricity_abs="0"
            CO_normed="66.223928" CO2_normed="3960.410057" HC_normed="0.394549" PMx_normed="0.071040" NOx_normed="1.638086" fuel_normed="1.702413" electricity_normed="0"
            traveltime="8.55" CO_perVeh="528.153447" CO2_perVeh="31585.324176" HC_perVeh="3.146631" PMx_perVeh="0.566564" NOx_perVeh="13.064176" fuel_perVeh="13.577193" electricity_perVeh="0"/>
        <edge id="-gneE54" sampledSeconds="19.60" CO_abs="321.221135" CO2_abs="24198.042189" HC_abs="2.014040" PMx_abs="0.326179" NOx_abs="9.218656" fuel_abs="10.401817" electricity_abs="0"
            CO_normed="38.054366" CO2_normed="2866.689215" HC_normed="0.238599" PMx_normed="0.038642" NOx_normed="1.092114" fuel_normed="1.232281" electricity_normed="0"
            traveltime="9.26" CO_perVeh="151.746850" CO2_perVeh="11431.304698" HC_perVeh="0.951445" PMx_perVeh="0.154089" NOx_perVeh="4.354950" fuel_perVeh="4.913882" electricity_perVeh="0"/>
        <edge id="-gneE60" sampledSeconds="8.46" CO_abs="136.947815" CO2_abs="12557.750363" HC_abs="0.909278" PMx_abs="0.160744" NOx_abs="4.709836" fuel_abs="5.398088" electricity_abs="0"
            CO_normed="16.223909" CO2_normed="1487.689262" HC_normed="0.107720" PMx_normed="0.019043" NOx_normed="0.557964" fuel_normed="0.639500" electricity_normed="0"
            traveltime="8.00" CO_perVeh="129.389988" CO2_perVeh="11864.717782" HC_perVeh="0.859097" PMx_perVeh="0.151873" NOx_perVeh="4.449911" fuel_perVeh="5.100180" electricity_perVeh="0"/>
        <edge id="-gneE64" sampledSeconds="9.54" CO_abs="204.495697" CO2_abs="14284.981465" HC_abs="1.255519" PMx_abs="0.190019" NOx_abs="5.438710" fuel_abs="6.140585" electricity_abs="0"
            CO_normed="24.226159" CO2_normed="1692.310559" HC_normed="0.148739" PMx_normed="0.022511" NOx_normed="0.644312" fuel_normed="0.727462" electricity_normed="0"
            traveltime="9.02" CO_perVeh="193.210063" CO2_perVeh="13496.627080" HC_perVeh="1.186229" PMx_perVeh="0.179533" NOx_perVeh="5.138560" fuel_perVeh="5.801700" electricity_perVeh="0"/>
        <edge id="-gneE75" sampledSeconds="5.98" CO_abs="0" CO2_abs="0" HC_abs="0" PMx_abs="0" NOx_abs="0" fuel_abs="0" electricity_abs="0"
            CO_normed="0" CO2_normed="0" HC_normed="0" PMx_normed="0" NOx_normed="0" fuel_normed="0" electricity_normed="0"
            traveltime="5.65" CO_perVeh="0" CO2_perVeh="0" HC_perVeh="0" PMx_perVeh="0" NOx_perVeh="0" fuel_perVeh="0" electricity_perVeh="0"/>
        <edge id="-gneE78" sampledSeconds="8.30" CO_abs="0" CO2_abs="0" HC_abs="0" PMx_abs="0" NOx_abs="0" fuel_abs="0" electricity_abs="0"
            CO_normed="0" CO2_normed="0" HC_normed="0" PMx_normed="0" NOx_normed="0" fuel_normed="0" electricity_normed="0"
            traveltime="7.84" CO_perVeh="0" CO2_perVeh="0" HC_perVeh="0" PMx_perVeh="0" NOx_perVeh="0" fuel_perVeh="0" electricity_perVeh="0"/>
        <edge id="-gneE81" sampledSeconds="7.36" CO_abs="0" CO2_abs="0" HC_abs="0" PMx_abs="0" NOx_abs="0" fuel_abs="0" electricity_abs="0"
            CO_normed="0" CO2_normed="0" HC_normed="0" PMx_normed="0" NOx_normed="0" fuel_normed="0" electricity_normed="0"
            traveltime="6.95" CO_perVeh="0" CO2_perVeh="0" HC_perVeh="0" PMx_perVeh="0" NOx_perVeh="0" fuel_perVeh="0" electricity_perVeh="0"/>
        <edge id="-gneE82" sampledSeconds="7.09" CO_abs="0" CO2_abs="0" HC_abs="0" PMx_abs="0" NOx_abs="0" fuel_abs="0" electricity_abs="0"
            CO_normed="0" CO2_normed="0" HC_normed="0" PMx_normed="0" NOx_normed="0" fuel_normed="0" electricity_normed="0"
            traveltime="6.70" CO_perVeh="0" CO2_perVeh="0" HC_perVeh="0" PMx_perVeh="0" NOx_perVeh="0" fuel_perVeh="0" electricity_perVeh="0"/>
        <edge id="-gneE87" sampledSeconds="17.68" CO_abs="1059.248712" CO2_abs="65427.230865" HC_abs="6.375184" PMx_abs="1.247700" NOx_abs="27.528702" fuel_abs="28.124254" electricity_abs="0"
            CO_normed="125.486882" CO2_normed="7751.021163" HC_normed="0.755254" PMx_normed="0.147812" NOx_normed="3.261265" fuel_normed="3.331819" electricity_normed="0"
            traveltime="8.35" CO_perVeh="500.395639" CO2_perVeh="30908.228267" HC_perVeh="3.011676" PMx_perVeh="0.589421" NOx_perVeh="13.004729" fuel_perVeh="13.286071" electricity_perVeh="0"/>
        <edge id="-gneE93" sampledSeconds="8.16" CO_abs="319.379327" CO2_abs="23146.904922" HC_abs="2.002062" PMx_abs="0.416047" NOx_abs="9.447002" fuel_abs="9.949829" electricity_abs="0"
            CO_normed="37.836171" CO2_normed="2742.163279" HC_normed="0.237180" PMx_normed="0.049288" NOx_normed="1.119166" fuel_normed="1.178734" electricity_normed="0"
            traveltime="7.71" CO_perVeh="301.753537" CO2_perVeh="21869.481913" HC_perVeh="1.891572" PMx_perVeh="0.393087" NOx_perVeh="8.925644" fuel_perVeh="9.400721" electricity_perVeh="0"/>
        <edge id="-gneE94" sampledSeconds="8.86" CO_abs="695.947689" CO2_abs="39650.007427" HC_abs="4.114098" PMx_abs="0.792628" NOx_abs="16.969264" fuel_abs="17.043758" electricity_abs="0"
            CO_normed="82.447403" CO2_normed="4697.249794" HC_normed="0.487388" PMx_normed="0.093901" NOx_normed="2.010312" fuel_normed="2.019137" electricity_normed="0"
            traveltime="8.37" CO_perVeh="657.539979" CO2_perVeh="37461.817172" HC_perVeh="3.887050" PMx_perVeh="0.748885" NOx_perVeh="16.032770" fuel_perVeh="16.103153" electricity_perVeh="0"/>
        <edge id="gneE0" sampledSeconds="17.91" CO_abs="904.996079" CO2_abs="56603.985505" HC_abs="5.459609" PMx_abs="1.053363" NOx_abs="23.596227" fuel_abs="24.331569" electricity_abs="0"
            CO_normed="107.212909" CO2_normed="6705.750553" HC_normed="0.646788" PMx_normed="0.124790" NOx_normed="2.795393" fuel_normed="2.882508" electricity_normed="0"
            traveltime="8.46" CO_perVeh="427.525742" CO2_perVeh="26740.072622" HC_perVeh="2.579153" PMx_perVeh="0.497615" NOx_perVeh="11.147003" fuel_perVeh="11.494384" electricity_perVeh="0"/>
        <edge id="gneE10" sampledSeconds="23.39" CO_abs="294.490251" CO2_abs="25667.034405" HC_abs="1.938855" PMx_abs="0.401928" NOx_abs="10.083334" fuel_abs="11.033161" electricity_abs="0"
            CO_normed="34.887617" CO2_normed="3040.717515" HC_normed="0.229692" PMx_normed="0.047616" NOx_normed="1.194551" fuel_normed="1.307075" electricity_normed="0"
            traveltime="7.37" CO_perVeh="92.746010" CO2_perVeh="8083.510468" HC_perVeh="0.610618" PMx_perVeh="0.126582" NOx_perVeh="3.175620" fuel_perVeh="3.474756" electricity_perVeh="0"/>
        <edge id="gneE100" sampledSeconds="10.04" CO_abs="962.382334" CO2_abs="48497.819613" HC_abs="5.535693" PMx_abs="0.971936" NOx_abs="20.743925" fuel_abs="20.847130" electricity_abs="0"
            CO_normed="114.011333" CO2_normed="5745.430782" HC_normed="0.655802" PMx_normed="0.115143" NOx_normed="2.457487" fuel_normed="2.469714" electricity_normed="0"
            traveltime="10.05" CO_perVeh="963.507927" CO2_perVeh="48554.542209" HC_perVeh="5.542168" PMx_perVeh="0.973073" NOx_perVeh="20.768187" fuel_perVeh="20.871512" electricity_perVeh="0"/>
        <edge id="gneE103" sampledSeconds="11.10" CO_abs="902.517096" CO2_abs="43008.124640" HC_abs="5.126521" PMx_abs="0.840402" NOx_abs="18.280305" fuel_abs="18.487418" electricity_abs="0"
            CO_normed="102.146050" CO2_normed="4867.619740" HC_normed="0.580215" PMx_normed="0.095116" NOx_normed="2.068948" fuel_normed="2.092389" electricity_normed="0"
            traveltime="11.11" CO_perVeh="903.525495" CO2_perVeh="43056.178411" HC_perVeh="5.132249" PMx_perVeh="0.841341" NOx_perVeh="18.300730" fuel_perVeh="18.508074" electricity_perVeh="0"/>
        <edge id="gneE104" sampledSeconds="18.31" CO_abs="1379.168086" CO2_abs="78831.182410" HC_abs="8.137417" PMx_abs="1.451736" NOx_abs="32.792348" fuel_abs="33.886187" electricity_abs="0"
            CO_normed="156.092967" CO2_normed="8922.040263" HC_normed="0.920985" PMx_normed="0.164306" NOx_normed="3.711408" fuel_normed="3.835207" electricity_normed="0"
            traveltime="8.91" CO_perVeh="671.230095" CO2_perVeh="38366.507028" HC_perVeh="3.960416" PMx_perVeh="0.706548" NOx_perVeh="15.959774" fuel_perVeh="16.492137" electricity_perVeh="0"/>
        <edge id="gneE107" sampledSeconds="6.57" CO_abs="0" CO2_abs="0" HC_abs="0" PMx_abs="0" NOx_abs="0" fuel_abs="0" electricity_abs="0"
            CO_normed="0" CO2_normed="0" HC_normed="0" PMx_normed="0" NOx_normed="0" fuel_normed="0" electricity_normed="0"
            traveltime="6.21" CO_perVeh="0" CO2_perVeh="0" HC_perVeh="0" PMx_perVeh="0" NOx_perVeh="0" fuel_perVeh="0" electricity_perVeh="0"/>
        <edge id="gneE108" sampledSeconds="7.03" CO_abs="499.394756" CO2_abs="33987.450014" HC_abs="3.086467" PMx_abs="0.664955" NOx_abs="14.308896" fuel_abs="14.609633" electricity_abs="0"
            CO_normed="59.162206" CO2_normed="4026.418983" HC_normed="0.365647" PMx_normed="0.078776" NOx_normed="1.695144" fuel_normed="1.730771" electricity_normed="0"
            traveltime="6.64" CO_perVeh="471.834339" CO2_perVeh="32111.762927" HC_perVeh="2.916132" PMx_perVeh="0.628257" NOx_perVeh="13.519222" fuel_perVeh="13.803362" electricity_perVeh="0"/>
        <edge id="gneE109" sampledSeconds="19.68" CO_abs="805.344704" CO2_abs="53429.959920" HC_abs="4.927195" PMx_abs="0.950546" NOx_abs="21.767937" fuel_abs="22.967243" electricity_abs="0"
            CO_normed="95.407428" CO2_normed="6329.730674" HC_normed="0.583714" PMx_normed="0.112609" NOx_normed="2.578800" fuel_normed="2.720879" electricity_normed="0"
            traveltime="9.29" CO_perVeh="380.449816" CO2_perVeh="25240.643318" HC_perVeh="2.327637" PMx_perVeh="0.449044" NOx_perVeh="10.283308" fuel_perVeh="10.849867" electricity_perVeh="0"/>
        <edge id="gneE11" sampledSeconds="16.39" CO_abs="266.431308" CO2_abs="23608.361389" HC_abs="1.756377" PMx_abs="0.335518" NOx_abs="9.073525" fuel_abs="10.148272" electricity_abs="0"
            CO_normed="31.563535" CO2_normed="2796.831019" HC_normed="0.208074" PMx_normed="0.039748" NOx_normed="1.074921" fuel_normed="1.202244" electricity_normed="0"
            traveltime="7.74" CO_perVeh="125.863797" CO2_perVeh="11152.735844" HC_perVeh="0.829723" PMx_perVeh="0.158501" NOx_perVeh="4.286389" fuel_perVeh="4.794106" electricity_perVeh="0"/>
        <edge id="gneE112" sampledSeconds="37.13" CO_abs="373.333923" CO2_abs="36087.103817" HC_abs="2.536676" PMx_abs="0.530337" NOx_abs="13.850253" fuel_abs="15.512333" electricity_abs="0"
            CO_normed="44.228055" CO2_normed="4275.160384" HC_normed="0.300514" PMx_normed="0.062828" NOx_normed="1.640809" fuel_normed="1.837712" electricity_normed="0"
            traveltime="7.02" CO_perVeh="70.546101" CO2_perVeh="6819.108359" HC_perVeh="0.479337" PMx_perVeh="0.100214" NOx_perVeh="2.617178" fuel_perVeh="2.931249" electricity_perVeh="0"/>
        <edge id="gneE113" sampledSeconds="29.29" CO_abs="153.989730" CO2_abs="19415.493512" HC_abs="1.142167" PMx_abs="0.227289" NOx_abs="7.038236" fuel_abs="8.345959" electricity_abs="0"
            CO_normed="18.242827" CO2_normed="2300.111118" HC_normed="0.135310" PMx_normed="0.026926" NOx_normed="0.833804" fuel_normed="0.988728" electricity_normed="0"
            traveltime="6.92" CO_perVeh="36.372850" CO2_perVeh="4585.999571" HC_perVeh="0.269783" PMx_perVeh="0.053686" NOx_perVeh="1.662453" fuel_perVeh="1.971341" electricity_perVeh="0"/>
        <edge id="gneE120" sampledSeconds="6.83" CO_abs="0" CO2_abs="0" HC_abs="0" PMx_abs="0" NOx_abs="0" fuel_abs="0" electricity_abs="0"
            CO_normed="0" CO2_normed="0" HC_normed="0" PMx_normed="0" NOx_normed="0" fuel_normed="0" electricity_normed="0"
            traveltime="6.65" CO_perVeh="0" CO2_perVeh="0" HC_perVeh="0" PMx_perVeh="0" NOx_perVeh="0" fuel_perVeh="0" electricity_perVeh="0"/>
        <edge id="gneE122" sampledSeconds="15.91" CO_abs="635.150833" CO2_abs="51073.260835" HC_abs="4.091585" PMx_abs="0.863162" NOx_abs="20.540770" fuel_abs="21.954151" electricity_abs="0"
            CO_normed="69.406963" CO2_normed="5581.099411" HC_normed="0.447113" PMx_normed="0.094323" NOx_normed="2.244620" fuel_normed="2.399069" electricity_normed="0"
            traveltime="7.72" CO_perVeh="308.192985" CO2_perVeh="24782.177565" HC_perVeh="1.985352" PMx_perVeh="0.418830" NOx_perVeh="9.966957" fuel_perVeh="10.652769" electricity_perVeh="0"/>
        <edge id="gneE123" sampledSeconds="15.91" CO_abs="484.151148" CO2_abs="38034.156663" HC_abs="3.105430" PMx_abs="0.681235" NOx_abs="15.507780" fuel_abs="16.349167" electricity_abs="0"
            CO_normed="52.906269" CO2_normed="4156.233730" HC_normed="0.339350" PMx_normed="0.074443" NOx_normed="1.694634" fuel_normed="1.786577" electricity_normed="0"
            traveltime="7.55" CO_perVeh="229.699522" CO2_perVeh="18044.835063" HC_perVeh="1.473333" PMx_perVeh="0.323203" NOx_perVeh="7.357474" fuel_perVeh="7.756660" electricity_perVeh="0"/>
        <edge id="gneE124" sampledSeconds="9.33" CO_abs="431.439613" CO2_abs="28477.863254" HC_abs="2.630130" PMx_abs="0.485612" NOx_abs="11.592792" fuel_abs="12.241430" electricity_abs="0"
            CO_normed="47.146145" CO2_normed="3111.956888" HC_normed="0.287411" PMx_normed="0.053066" NOx_normed="1.266818" fuel_normed="1.337699" electricity_normed="0"
            traveltime="9.08" CO_perVeh="419.732723" CO2_perVeh="27705.131210" HC_perVeh="2.558763" PMx_perVeh="0.472435" NOx_perVeh="11.278228" fuel_perVeh="11.909265" electricity_perVeh="0"/>
        <edge id="gneE19" sampledSeconds="13.75" CO_abs="550.085016" CO2_abs="49044.464968" HC_abs="3.656148" PMx_abs="0.808124" NOx_abs="19.418753" fuel_abs="21.082059" electricity_abs="0"
            CO_normed="65.167371" CO2_normed="5810.190664" HC_normed="0.433136" PMx_normed="0.095737" NOx_normed="2.300497" fuel_normed="2.497545" electricity_normed="0"
            traveltime="6.50" CO_perVeh="259.863562" CO2_perVeh="23168.908395" HC_perVeh="1.727187" PMx_perVeh="0.381763" NOx_perVeh="9.173539" fuel_perVeh="9.959295" electricity_perVeh="0"/>
        <edge id="gneE20" sampledSeconds="12.81" CO_abs="195.535515" CO2_abs="26625.312305" HC_abs="1.511803" PMx_abs="0.386413" NOx_abs="10.014936" fuel_abs="11.445062" electricity_abs="0"
            CO_normed="23.164666" CO2_normed="3154.242606" HC_normed="0.179100" PMx_normed="0.045777" NOx_normed="1.186448" fuel_normed="1.355872" electricity_normed="0"
            traveltime="6.05" CO_perVeh="92.372186" CO2_perVeh="12577.962104" HC_perVeh="0.714185" PMx_perVeh="0.182544" NOx_perVeh="4.731118" fuel_perVeh="5.406718" electricity_perVeh="0"/>
        <edge id="gneE22" sampledSeconds="8.51" CO_abs="0" CO2_abs="0" HC_abs="0" PMx_abs="0" NOx_abs="0" fuel_abs="0" electricity_abs="0"
            CO_normed="0" CO2_normed="0" HC_normed="0" PMx_normed="0" NOx_normed="0" fuel_normed="0" electricity_normed="0"
            traveltime="8.04" CO_perVeh="0" CO2_perVeh="0" HC_perVeh="0" PMx_perVeh="0" NOx_perVeh="0" fuel_perVeh="0" electricity_perVeh="0"/>
        <edge id="gneE27" sampledSeconds="8.12" CO_abs="0" CO2_abs="0" HC_abs="0" PMx_abs="0" NOx_abs="0" fuel_abs="0" electricity_abs="0"
            CO_normed="0" CO2_normed="0" HC_normed="0" PMx_normed="0" NOx_normed="0" fuel_normed="0" electricity_normed="0"
            traveltime="7.67" CO_perVeh="0" CO2_perVeh="0" HC_perVeh="0" PMx_perVeh="0" NOx_perVeh="0" fuel_perVeh="0" electricity_perVeh="0"/>
        <edge id="gneE41" sampledSeconds="17.12" CO_abs="668.031026" CO2_abs="47130.785473" HC_abs="4.150154" PMx_abs="0.823354" NOx_abs="19.210132" fuel_abs="20.259474" electricity_abs="0"
            CO_normed="79.140177" CO2_normed="5583.481233" HC_normed="0.491660" PMx_normed="0.097541" NOx_normed="2.275782" fuel_normed="2.400096" electricity_normed="0"
            traveltime="8.09" CO_perVeh="315.581986" CO2_perVeh="22264.874373" HC_perVeh="1.960558" PMx_perVeh="0.388957" NOx_perVeh="9.074985" fuel_perVeh="9.570701" electricity_perVeh="0"/>
        <edge id="gneE46" sampledSeconds="16.52" CO_abs="403.491413" CO2_abs="33598.313988" HC_abs="2.615301" PMx_abs="0.509349" NOx_abs="13.147368" fuel_abs="14.442515" electricity_abs="0"
            CO_normed="47.800747" CO2_normed="3980.318888" HC_normed="0.309829" PMx_normed="0.060341" NOx_normed="1.557540" fuel_normed="1.710973" electricity_normed="0"
            traveltime="7.80" CO_perVeh="190.611837" CO2_perVeh="15872.051200" HC_perVeh="1.235484" PMx_perVeh="0.240619" NOx_perVeh="6.210898" fuel_perVeh="6.822733" electricity_perVeh="0"/>
        <edge id="gneE50" sampledSeconds="12.91" CO_abs="133.896816" CO2_abs="27772.135608" HC_abs="1.222973" PMx_abs="0.331325" NOx_abs="9.879962" fuel_abs="11.938087" electricity_abs="0"
            CO_normed="15.862463" CO2_normed="3290.104258" HC_normed="0.144883" PMx_normed="0.039251" NOx_normed="1.170457" fuel_normed="1.414279" electricity_normed="0"
            traveltime="6.10" CO_perVeh="63.253684" CO2_perVeh="13119.728521" HC_perVeh="0.577740" PMx_perVeh="0.156520" NOx_perVeh="4.667355" fuel_perVeh="5.639626" electricity_perVeh="0"/>
        <edge id="gneE53" sampledSeconds="8.01" CO_abs="0" CO2_abs="0" HC_abs="0" PMx_abs="0" NOx_abs="0" fuel_abs="0" electricity_abs="0"
            CO_normed="0" CO2_normed="0" HC_normed="0" PMx_normed="0" NOx_normed="0" fuel_normed="0" electricity_normed="0"
            traveltime="7.57" CO_perVeh="0" CO2_perVeh="0" HC_perVeh="0" PMx_perVeh="0" NOx_perVeh="0" fuel_perVeh="0" electricity_perVeh="0"/>
        <edge id="gneE59" sampledSeconds="15.54" CO_abs="256.091081" CO2_abs="24096.151669" HC_abs="1.728385" PMx_abs="0.370748" NOx_abs="9.316481" fuel_abs="10.357910" electricity_abs="0"
            CO_normed="30.338551" CO2_normed="2854.618468" HC_normed="0.204758" PMx_normed="0.043922" NOx_normed="1.103703" fuel_normed="1.227079" electricity_normed="0"
            traveltime="7.34" CO_perVeh="120.979010" CO2_perVeh="11383.170987" HC_perVeh="0.816500" PMx_perVeh="0.175144" NOx_perVeh="4.401163" fuel_perVeh="4.893141" electricity_perVeh="0"/>
        <edge id="gneE6" sampledSeconds="8.05" CO_abs="0" CO2_abs="0" HC_abs="0" PMx_abs="0" NOx_abs="0" fuel_abs="0" electricity_abs="0"
            CO_normed="0" CO2_normed="0" HC_normed="0" PMx_normed="0" NOx_normed="0" fuel_normed="0" electricity_normed="0"
            traveltime="7.61" CO_perVeh="0" CO2_perVeh="0" HC_perVeh="0" PMx_perVeh="0" NOx_perVeh="0" fuel_perVeh="0" electricity_perVeh="0"/>
        <edge id="gneE60" sampledSeconds="20.39" CO_abs="992.381007" CO2_abs="72540.168168" HC_abs="6.241211" PMx_abs="1.338279" NOx_abs="29.904615" fuel_abs="31.181736" electricity_abs="0"
            CO_normed="117.565211" CO2_normed="8593.675313" HC_normed="0.739383" PMx_normed="0.158543" NOx_normed="3.542734" fuel_normed="3.694032" electricity_normed="0"
            traveltime="6.53" CO_perVeh="317.997884" CO2_perVeh="23244.721386" HC_perVeh="1.999929" PMx_perVeh="0.428837" NOx_perVeh="9.582614" fuel_perVeh="9.991854" electricity_perVeh="0"/>
        <edge id="gneE62" sampledSeconds="6.40" CO_abs="0" CO2_abs="0" HC_abs="0" PMx_abs="0" NOx_abs="0" fuel_abs="0" electricity_abs="0"
            CO_normed="0" CO2_normed="0" HC_normed="0" PMx_normed="0" NOx_normed="0" fuel_normed="0" electricity_normed="0"
            traveltime="6.04" CO_perVeh="0" CO2_perVeh="0" HC_perVeh="0" PMx_perVeh="0" NOx_perVeh="0" fuel_perVeh="0" electricity_perVeh="0"/>
        <edge id="gneE63" sampledSeconds="7.32" CO_abs="0" CO2_abs="0" HC_abs="0" PMx_abs="0" NOx_abs="0" fuel_abs="0" electricity_abs="0"
            CO_normed="0" CO2_normed="0" HC_normed="0" PMx_normed="0" NOx_normed="0" fuel_normed="0" electricity_normed="0"
            traveltime="6.92" CO_perVeh="0" CO2_perVeh="0" HC_perVeh="0" PMx_perVeh="0" NOx_perVeh="0" fuel_perVeh="0" electricity_perVeh="0"/>
        <edge id="gneE64" sampledSeconds="7.29" CO_abs="0" CO2_abs="0" HC_abs="0" PMx_abs="0" NOx_abs="0" fuel_abs="0" electricity_abs="0"
            CO_normed="0" CO2_normed="0" HC_normed="0" PMx_normed="0" NOx_normed="0" fuel_normed="0" electricity_normed="0"
            traveltime="6.89" CO_perVeh="0" CO2_perVeh="0" HC_perVeh="0" PMx_perVeh="0" NOx_perVeh="0" fuel_perVeh="0" electricity_perVeh="0"/>
        <edge id="gneE7" sampledSeconds="7.96" CO_abs="0" CO2_abs="0" HC_abs="0" PMx_abs="0" NOx_abs="0" fuel_abs="0" electricity_abs="0"
            CO_normed="0" CO2_normed="0" HC_normed="0" PMx_normed="0" NOx_normed="0" fuel_normed="0" electricity_normed="0"
            traveltime="7.52" CO_perVeh="0" CO2_perVeh="0" HC_perVeh="0" PMx_perVeh="0" NOx_perVeh="0" fuel_perVeh="0" electricity_perVeh="0"/>
        <edge id="gneE72" sampledSeconds="7.31" CO_abs="0" CO2_abs="0" HC_abs="0" PMx_abs="0" NOx_abs="0" fuel_abs="0" electricity_abs="0"
            CO_normed="0" CO2_normed="0" HC_normed="0" PMx_normed="0" NOx_normed="0" fuel_normed="0" electricity_normed="0"
            traveltime="6.90" CO_perVeh="0" CO2_perVeh="0" HC_perVeh="0" PMx_perVeh="0" NOx_perVeh="0" fuel_perVeh="0" electricity_perVeh="0"/>
        <edge id="gneE75" sampledSeconds="14.51" CO_abs="174.387889" CO2_abs="22365.978936" HC_abs="1.307370" PMx_abs="0.288181" NOx_abs="8.269419" fuel_abs="9.614215" electricity_abs="0"
            CO_normed="20.659352" CO2_normed="2649.648683" HC_normed="0.154881" PMx_normed="0.034140" NOx_normed="0.979660" fuel_normed="1.138975" electricity_normed="0"
            traveltime="6.86" CO_perVeh="82.381917" CO2_perVeh="10565.826694" HC_perVeh="0.617610" PMx_perVeh="0.136139" NOx_perVeh="3.906525" fuel_perVeh="4.541815" electricity_perVeh="0"/>
        <edge id="gneE8" sampledSeconds="7.86" CO_abs="0" CO2_abs="0" HC_abs="0" PMx_abs="0" NOx_abs="0" fuel_abs="0" electricity_abs="0"
            CO_normed="0" CO2_normed="0" HC_normed="0" PMx_normed="0" NOx_normed="0" fuel_normed="0" electricity_normed="0"
            traveltime="7.43" CO_perVeh="0" CO2_perVeh="0" HC_perVeh="0" PMx_perVeh="0" NOx_perVeh="0" fuel_perVeh="0" electricity_perVeh="0"/>
        <edge id="gneE80" sampledSeconds="14.70" CO_abs="200.911828" CO2_abs="22181.295883" HC_abs="1.427493" PMx_abs="0.311882" NOx_abs="8.408811" fuel_abs="9.534807" electricity_abs="0"
            CO_normed="23.801586" CO2_normed="2627.769685" HC_normed="0.169112" PMx_normed="0.036948" NOx_normed="0.996173" fuel_normed="1.129568" electricity_normed="0"
            traveltime="6.95" CO_perVeh="94.911989" CO2_perVeh="10478.581278" HC_perVeh="0.674357" PMx_perVeh="0.147335" NOx_perVeh="3.972374" fuel_perVeh="4.504302" electricity_perVeh="0"/>