<?xml version="1.0" encoding="UTF-8"?>

<!-- generated on 01/26/21 17:50:58 by Eclipse SUMO GUI Version 1.7.0
<configuration xmlns:xsi="http://www.w3.org/2001/XMLSchema-instance" xsi:noNamespaceSchemaLocation="http://sumo.dlr.de/xsd/sumoConfiguration.xsd">

    <input>
        <net-file value="case1.net.xml"/>
        <route-files value="case1.rou.xml"/>
        <additional-files value="case1.add.xml"/>
    </input>

    <output>
        <emission-output value="emissionOutput.xml"/>
        <tripinfo-output value="tripinfo.xml"/>
    </output>

    <processing>
        <ignore-route-errors value="true"/>
    </processing>

    <traci_server>
        <remote-port value="62167"/>
    </traci_server>

</configuration>
-->

<meandata xmlns:xsi="http://www.w3.org/2001/XMLSchema-instance" xsi:noNamespaceSchemaLocation="http://sumo.dlr.de/xsd/meandata_file.xsd">
    <interval begin="0.00" end="521.00" id="edgeDetector2">
        <edge id="-gneE1" sampledSeconds="6.43" CO_abs="0" CO2_abs="0" HC_abs="0" PMx_abs="0" NOx_abs="0" fuel_abs="0" electricity_abs="0"
            CO_normed="0" CO2_normed="0" HC_normed="0" PMx_normed="0" NOx_normed="0" fuel_normed="0" electricity_normed="0"
            traveltime="6.08" CO_perVeh="0" CO2_perVeh="0" HC_perVeh="0" PMx_perVeh="0" NOx_perVeh="0" fuel_perVeh="0" electricity_perVeh="0"/>
        <edge id="-gneE115" sampledSeconds="11.01" CO_abs="0" CO2_abs="0" HC_abs="0" PMx_abs="0" NOx_abs="0" fuel_abs="0" electricity_abs="0"
            CO_normed="0" CO2_normed="0" HC_normed="0" PMx_normed="0" NOx_normed="0" fuel_normed="0" electricity_normed="0"
            traveltime="11.02" CO_perVeh="0" CO2_perVeh="0" HC_perVeh="0" PMx_perVeh="0" NOx_perVeh="0" fuel_perVeh="0" electricity_perVeh="0"/>
        <edge id="-gneE118" sampledSeconds="9.86" CO_abs="0" CO2_abs="0" HC_abs="0" PMx_abs="0" NOx_abs="0" fuel_abs="0" electricity_abs="0"
            CO_normed="0" CO2_normed="0" HC_normed="0" PMx_normed="0" NOx_normed="0" fuel_normed="0" electricity_normed="0"
            traveltime="9.87" CO_perVeh="0" CO2_perVeh="0" HC_perVeh="0" PMx_perVeh="0" NOx_perVeh="0" fuel_perVeh="0" electricity_perVeh="0"/>
        <edge id="-gneE119" sampledSeconds="353.11" CO_abs="53000.827109" CO2_abs="991355.848430" HC_abs="264.665004" PMx_abs="23.733920" NOx_abs="447.639819" fuel_abs="426.164056" electricity_abs="0"
            CO_normed="3946.384969" CO2_normed="73815.297471" HC_normed="19.706674" PMx_normed="1.767202" NOx_normed="33.330783" fuel_normed="31.731720" electricity_normed="0"
            traveltime="71.47" CO_perVeh="10727.345608" CO2_perVeh="200650.015989" HC_perVeh="53.568088" PMx_perVeh="4.803736" NOx_perVeh="90.602115" fuel_perVeh="86.255430" electricity_perVeh="0"/>
        <edge id="-gneE12" sampledSeconds="17.15" CO_abs="816.883160" CO2_abs="57761.073134" HC_abs="5.078331" PMx_abs="1.010174" NOx_abs="23.540947" fuel_abs="24.828970" electricity_abs="0"
            CO_normed="65.940306" CO2_normed="4662.579674" HC_normed="0.409932" PMx_normed="0.081543" NOx_normed="1.900268" fuel_normed="2.004240" electricity_normed="0"
            traveltime="8.10" CO_perVeh="385.900654" CO2_perVeh="27286.687971" HC_perVeh="2.399035" PMx_perVeh="0.477212" NOx_perVeh="11.120889" fuel_perVeh="11.729359" electricity_perVeh="0"/>
        <edge id="-gneE13" sampledSeconds="17.53" CO_abs="808.000410" CO2_abs="55678.207092" HC_abs="4.990069" PMx_abs="0.986106" NOx_abs="22.810087" fuel_abs="23.933631" electricity_abs="0"
            CO_normed="65.223274" CO2_normed="4494.446910" HC_normed="0.402808" PMx_normed="0.079600" NOx_normed="1.841272" fuel_normed="1.931967" electricity_normed="0"
            traveltime="8.28" CO_perVeh="381.704388" CO2_perVeh="26302.729178" HC_perVeh="2.357339" PMx_perVeh="0.465843" NOx_perVeh="10.775626" fuel_perVeh="11.306395" electricity_perVeh="0"/>
        <edge id="-gneE14" sampledSeconds="7.56" CO_abs="451.744698" CO2_abs="32106.645562" HC_abs="2.820730" PMx_abs="0.604668" NOx_abs="13.357501" fuel_abs="13.801182" electricity_abs="0"
            CO_normed="36.465660" CO2_normed="2591.707267" HC_normed="0.227694" PMx_normed="0.048810" NOx_normed="1.078242" fuel_normed="1.114057" electricity_normed="0"
            traveltime="7.14" CO_perVeh="426.813975" CO2_perVeh="30334.755631" HC_perVeh="2.665060" PMx_perVeh="0.571298" NOx_perVeh="12.620332" fuel_perVeh="13.039527" electricity_perVeh="0"/>
        <edge id="-gneE2" sampledSeconds="6.44" CO_abs="0" CO2_abs="0" HC_abs="0" PMx_abs="0" NOx_abs="0" fuel_abs="0" electricity_abs="0"
            CO_normed="0" CO2_normed="0" HC_normed="0" PMx_normed="0" NOx_normed="0" fuel_normed="0" electricity_normed="0"
            traveltime="6.08" CO_perVeh="0" CO2_perVeh="0" HC_perVeh="0" PMx_perVeh="0" NOx_perVeh="0" fuel_perVeh="0" electricity_perVeh="0"/>
        <edge id="-gneE24" sampledSeconds="8.00" CO_abs="449.500247" CO2_abs="31328.306158" HC_abs="2.791331" PMx_abs="0.588144" NOx_abs="13.024162" fuel_abs="13.466619" electricity_abs="0"
            CO_normed="36.284484" CO2_normed="2528.878284" HC_normed="0.225321" PMx_normed="0.047476" NOx_normed="1.051334" fuel_normed="1.087050" electricity_normed="0"
            traveltime="7.56" CO_perVeh="424.693390" CO2_perVeh="29599.370939" HC_perVeh="2.637284" PMx_perVeh="0.555685" NOx_perVeh="12.305389" fuel_perVeh="12.723428" electricity_perVeh="0"/>
        <edge id="-gneE25" sampledSeconds="9.21" CO_abs="590.177004" CO2_abs="36525.477572" HC_abs="3.554854" PMx_abs="0.701185" NOx_abs="15.385650" fuel_abs="15.700670" electricity_abs="0"
            CO_normed="47.640169" CO2_normed="2948.403485" HC_normed="0.286954" PMx_normed="0.056601" NOx_normed="1.241958" fuel_normed="1.267387" electricity_normed="0"
            traveltime="8.70" CO_perVeh="557.606529" CO2_perVeh="34509.722739" HC_perVeh="3.358670" PMx_perVeh="0.662489" NOx_perVeh="14.536552" fuel_perVeh="14.834187" electricity_perVeh="0"/>
        <edge id="-gneE33" sampledSeconds="8.19" CO_abs="0" CO2_abs="0" HC_abs="0" PMx_abs="0" NOx_abs="0" fuel_abs="0" electricity_abs="0"
            CO_normed="0" CO2_normed="0" HC_normed="0" PMx_normed="0" NOx_normed="0" fuel_normed="0" electricity_normed="0"
            traveltime="7.74" CO_perVeh="0" CO2_perVeh="0" HC_perVeh="0" PMx_perVeh="0" NOx_perVeh="0" fuel_perVeh="0" electricity_perVeh="0"/>
        <edge id="-gneE45" sampledSeconds="17.78" CO_abs="772.821446" CO2_abs="51363.796129" HC_abs="4.728253" PMx_abs="0.914945" NOx_abs="21.091545" fuel_abs="22.079068" electricity_abs="0"
            CO_normed="62.383563" CO2_normed="4146.179751" HC_normed="0.381673" PMx_normed="0.073856" NOx_normed="1.702548" fuel_normed="1.782263" electricity_normed="0"
            traveltime="8.40" CO_perVeh="365.085628" CO2_perVeh="24264.574772" HC_perVeh="2.233656" PMx_perVeh="0.432225" NOx_perVeh="9.963776" fuel_perVeh="10.430288" electricity_perVeh="0"/>
        <edge id="-gneE5" sampledSeconds="6.32" CO_abs="0" CO2_abs="0" HC_abs="0" PMx_abs="0" NOx_abs="0" fuel_abs="0" electricity_abs="0"
            CO_normed="0" CO2_normed="0" HC_normed="0" PMx_normed="0" NOx_normed="0" fuel_normed="0" electricity_normed="0"
            traveltime="5.97" CO_perVeh="0" CO2_perVeh="0" HC_perVeh="0" PMx_perVeh="0" NOx_perVeh="0" fuel_perVeh="0" electricity_perVeh="0"/>
        <edge id="-gneE51" sampledSeconds="8.14" CO_abs="425.049693" CO2_abs="28907.880166" HC_abs="2.625562" PMx_abs="0.562134" NOx_abs="12.166317" fuel_abs="12.426164" electricity_abs="0"
            CO_normed="34.310790" CO2_normed="2333.497063" HC_normed="0.211940" PMx_normed="0.045376" NOx_normed="0.982087" fuel_normed="1.003063" electricity_normed="0"
            traveltime="7.69" CO_perVeh="401.592205" CO2_perVeh="27312.522541" HC_perVeh="2.480663" PMx_perVeh="0.531111" NOx_perVeh="11.494886" fuel_perVeh="11.740394" electricity_perVeh="0"/>
        <edge id="-gneE53" sampledSeconds="9.50" CO_abs="540.429515" CO2_abs="33382.615517" HC_abs="3.245171" PMx_abs="0.597965" NOx_abs="13.798466" fuel_abs="14.349759" electricity_abs="0"
            CO_normed="43.624461" CO2_normed="2694.705900" HC_normed="0.261956" PMx_normed="0.048269" NOx_normed="1.113837" fuel_normed="1.158339" electricity_normed="0"
            traveltime="8.98" CO_perVeh="510.604487" CO2_perVeh="31540.307817" HC_perVeh="3.066078" PMx_perVeh="0.564965" NOx_perVeh="13.036961" fuel_perVeh="13.557830" electricity_perVeh="0"/>
        <edge id="-gneE54" sampledSeconds="18.61" CO_abs="315.410084" CO2_abs="26760.453874" HC_abs="2.046909" PMx_abs="0.357059" NOx_abs="10.142594" fuel_abs="11.503274" electricity_abs="0"
            CO_normed="25.460480" CO2_normed="2160.152877" HC_normed="0.165230" PMx_normed="0.028822" NOx_normed="0.818729" fuel_normed="0.928565" electricity_normed="0"
            traveltime="8.79" CO_perVeh="149.001673" CO2_perVeh="12641.803817" HC_perVeh="0.966973" PMx_perVeh="0.168677" NOx_perVeh="4.791424" fuel_perVeh="5.434218" electricity_perVeh="0"/>
        <edge id="-gneE60" sampledSeconds="8.49" CO_abs="117.702694" CO2_abs="10339.966790" HC_abs="0.771717" PMx_abs="0.136349" NOx_abs="3.910072" fuel_abs="4.444747" electricity_abs="0"
            CO_normed="9.501177" CO2_normed="834.661068" HC_normed="0.062294" PMx_normed="0.011006" NOx_normed="0.315628" fuel_normed="0.358788" electricity_normed="0"
            traveltime="8.02" CO_perVeh="111.206961" CO2_perVeh="9769.328446" HC_perVeh="0.729127" PMx_perVeh="0.128824" NOx_perVeh="3.694284" fuel_perVeh="4.199452" electricity_perVeh="0"/>
        <edge id="-gneE64" sampledSeconds="9.51" CO_abs="188.537558" CO2_abs="13357.049310" HC_abs="1.160428" PMx_abs="0.169893" NOx_abs="5.030901" fuel_abs="5.741711" electricity_abs="0"
            CO_normed="15.219097" CO2_normed="1078.205498" HC_normed="0.093672" PMx_normed="0.013714" NOx_normed="0.406104" fuel_normed="0.463481" electricity_normed="0"
            traveltime="8.99" CO_perVeh="178.132616" CO2_perVeh="12619.905308" HC_perVeh="1.096387" PMx_perVeh="0.160517" NOx_perVeh="4.753258" fuel_perVeh="5.424840" electricity_perVeh="0"/>
        <edge id="-gneE75" sampledSeconds="6.55" CO_abs="0" CO2_abs="0" HC_abs="0" PMx_abs="0" NOx_abs="0" fuel_abs="0" electricity_abs="0"
            CO_normed="0" CO2_normed="0" HC_normed="0" PMx_normed="0" NOx_normed="0" fuel_normed="0" electricity_normed="0"
            traveltime="6.19" CO_perVeh="0" CO2_perVeh="0" HC_perVeh="0" PMx_perVeh="0" NOx_perVeh="0" fuel_perVeh="0" electricity_perVeh="0"/>
        <edge id="-gneE78" sampledSeconds="9.24" CO_abs="0" CO2_abs="0" HC_abs="0" PMx_abs="0" NOx_abs="0" fuel_abs="0" electricity_abs="0"
            CO_normed="0" CO2_normed="0" HC_normed="0" PMx_normed="0" NOx_normed="0" fuel_normed="0" electricity_normed="0"
            traveltime="8.73" CO_perVeh="0" CO2_perVeh="0" HC_perVeh="0" PMx_perVeh="0" NOx_perVeh="0" fuel_perVeh="0" electricity_perVeh="0"/>
        <edge id="-gneE81" sampledSeconds="7.51" CO_abs="0" CO2_abs="0" HC_abs="0" PMx_abs="0" NOx_abs="0" fuel_abs="0" electricity_abs="0"
            CO_normed="0" CO2_normed="0" HC_normed="0" PMx_normed="0" NOx_normed="0" fuel_normed="0" electricity_normed="0"
            traveltime="7.09" CO_perVeh="0" CO2_perVeh="0" HC_perVeh="0" PMx_perVeh="0" NOx_perVeh="0" fuel_perVeh="0" electricity_perVeh="0"/>
        <edge id="-gneE82" sampledSeconds="7.38" CO_abs="0" CO2_abs="0" HC_abs="0" PMx_abs="0" NOx_abs="0" fuel_abs="0" electricity_abs="0"
            CO_normed="0" CO2_normed="0" HC_normed="0" PMx_normed="0" NOx_normed="0" fuel_normed="0" electricity_normed="0"
            traveltime="6.97" CO_perVeh="0" CO2_perVeh="0" HC_perVeh="0" PMx_perVeh="0" NOx_perVeh="0" fuel_perVeh="0" electricity_perVeh="0"/>
        <edge id="-gneE87" sampledSeconds="17.77" CO_abs="1064.831643" CO2_abs="65575.643576" HC_abs="6.403675" PMx_abs="1.248880" NOx_abs="27.582821" fuel_abs="28.188055" electricity_abs="0"
            CO_normed="85.955162" CO2_normed="5293.386121" HC_normed="0.516916" PMx_normed="0.100812" NOx_normed="2.226536" fuel_normed="2.275391" electricity_normed="0"
            traveltime="8.39" CO_perVeh="503.033050" CO2_perVeh="30978.339349" HC_perVeh="3.025136" PMx_perVeh="0.589979" NOx_perVeh="13.030295" fuel_perVeh="13.316211" electricity_perVeh="0"/>
        <edge id="gneE0" sampledSeconds="17.83" CO_abs="936.619485" CO2_abs="60636.081711" HC_abs="5.697410" PMx_abs="1.112258" NOx_abs="25.136249" fuel_abs="26.064790" electricity_abs="0"
            CO_normed="75.605641" CO2_normed="4894.655635" HC_normed="0.459905" PMx_normed="0.089783" NOx_normed="2.029044" fuel_normed="2.103998" electricity_normed="0"
            traveltime="8.42" CO_perVeh="442.464834" CO2_perVeh="28644.859793" HC_perVeh="2.691492" PMx_perVeh="0.525437" NOx_perVeh="11.874519" fuel_perVeh="12.313168" electricity_perVeh="0"/>
        <edge id="gneE10" sampledSeconds="30.34" CO_abs="531.826850" CO2_abs="50430.021900" HC_abs="3.598464" PMx_abs="0.785382" NOx_abs="19.686613" fuel_abs="21.677688" electricity_abs="0"
            CO_normed="42.930038" CO2_normed="4070.803784" HC_normed="0.290475" PMx_normed="0.063397" NOx_normed="1.589139" fuel_normed="1.749863" electricity_normed="0"
            traveltime="7.17" CO_perVeh="125.619145" CO2_perVeh="11911.727027" HC_perVeh="0.849968" PMx_perVeh="0.185510" NOx_perVeh="4.650039" fuel_perVeh="5.120337" electricity_perVeh="0"/>
        <edge id="gneE100" sampledSeconds="10.04" CO_abs="962.382334" CO2_abs="48497.819613" HC_abs="5.535693" PMx_abs="0.971936" NOx_abs="20.743925" fuel_abs="20.847130" electricity_abs="0"
            CO_normed="77.685266" CO2_normed="3914.832875" HC_normed="0.446851" PMx_normed="0.078456" NOx_normed="1.674488" fuel_normed="1.682819" electricity_normed="0"
            traveltime="10.05" CO_perVeh="963.507927" CO2_perVeh="48554.542209" HC_perVeh="5.542168" PMx_perVeh="0.973073" NOx_perVeh="20.768187" fuel_perVeh="20.871512" electricity_perVeh="0"/>
        <edge id="gneE103" sampledSeconds="11.10" CO_abs="902.493880" CO2_abs="43002.703546" HC_abs="5.126276" PMx_abs="0.840253" NOx_abs="18.277713" fuel_abs="18.485088" electricity_abs="0"
            CO_normed="69.598685" CO2_normed="3316.290204" HC_normed="0.395329" PMx_normed="0.064799" NOx_normed="1.409544" fuel_normed="1.425536" electricity_normed="0"
            traveltime="11.11" CO_perVeh="903.502253" CO2_perVeh="43050.751260" HC_perVeh="5.132004" PMx_perVeh="0.841192" NOx_perVeh="18.298135" fuel_perVeh="18.505742" electricity_perVeh="0"/>
        <edge id="gneE104" sampledSeconds="18.32" CO_abs="1383.789353" CO2_abs="79333.350989" HC_abs="8.169919" PMx_abs="1.457984" NOx_abs="32.976655" fuel_abs="34.102050" electricity_abs="0"
            CO_normed="106.715315" CO2_normed="6118.043588" HC_normed="0.630049" PMx_normed="0.112437" NOx_normed="2.543100" fuel_normed="2.629888" electricity_normed="0"
            traveltime="8.92" CO_perVeh="673.479229" CO2_perVeh="38610.908466" HC_perVeh="3.976235" PMx_perVeh="0.709589" NOx_perVeh="16.049475" fuel_perVeh="16.597195" electricity_perVeh="0"/>
        <edge id="gneE107" sampledSeconds="6.57" CO_abs="0" CO2_abs="0" HC_abs="0" PMx_abs="0" NOx_abs="0" fuel_abs="0" electricity_abs="0"
            CO_normed="0" CO2_normed="0" HC_normed="0" PMx_normed="0" NOx_normed="0" fuel_normed="0" electricity_normed="0"
            traveltime="6.21" CO_perVeh="0" CO2_perVeh="0" HC_perVeh="0" PMx_perVeh="0" NOx_perVeh="0" fuel_perVeh="0" electricity_perVeh="0"/>
        <edge id="gneE108" sampledSeconds="7.03" CO_abs="499.394756" CO2_abs="33987.450014" HC_abs="3.086467" PMx_abs="0.664955" NOx_abs="14.308896" fuel_abs="14.609633" electricity_abs="0"
            CO_normed="40.312060" CO2_normed="2743.529249" HC_normed="0.249145" PMx_normed="0.053676" NOx_normed="1.155040" fuel_normed="1.179316" electricity_normed="0"
            traveltime="6.64" CO_perVeh="471.834339" CO2_perVeh="32111.762927" HC_perVeh="2.916132" PMx_perVeh="0.628257" NOx_perVeh="13.519222" fuel_perVeh="13.803362" electricity_perVeh="0"/>
        <edge id="gneE109" sampledSeconds="6.28" CO_abs="103.649034" CO2_abs="13442.009011" HC_abs="0.786564" PMx_abs="0.200733" NOx_abs="5.097639" fuel_abs="5.778129" electricity_abs="0"
            CO_normed="8.366740" CO2_normed="1085.063601" HC_normed="0.063493" PMx_normed="0.016204" NOx_normed="0.411491" fuel_normed="0.466421" electricity_normed="0"
            traveltime="5.93" CO_perVeh="97.928889" CO2_perVeh="12700.176284" HC_perVeh="0.743156" PMx_perVeh="0.189655" NOx_perVeh="4.816313" fuel_perVeh="5.459248" electricity_perVeh="0"/>
        <edge id="gneE11" sampledSeconds="22.95" CO_abs="235.174484" CO2_abs="27232.110698" HC_abs="1.691695" PMx_abs="0.336004" NOx_abs="10.010502" fuel_abs="11.706004" electricity_abs="0"
            CO_normed="18.983715" CO2_normed="2198.225880" HC_normed="0.136557" PMx_normed="0.027123" NOx_normed="0.808066" fuel_normed="0.944930" electricity_normed="0"
            traveltime="7.23" CO_perVeh="74.065253" CO2_perVeh="8576.411611" HC_perVeh="0.532778" PMx_perVeh="0.105820" NOx_perVeh="3.152682" fuel_perVeh="3.686659" electricity_perVeh="0"/>
        <edge id="gneE112" sampledSeconds="28.25" CO_abs="431.968330" CO2_abs="50570.156381" HC_abs="3.131457" PMx_abs="0.703082" NOx_abs="19.025036" fuel_abs="21.737985" electricity_abs="0"
            CO_normed="34.869275" CO2_normed="4082.115696" HC_normed="0.252777" PMx_normed="0.056754" NOx_normed="1.535736" fuel_normed="1.754730" electricity_normed="0"
            traveltime="6.67" CO_perVeh="102.032255" CO2_perVeh="11944.827225" HC_perVeh="0.739660" PMx_perVeh="0.166070" NOx_perVeh="4.493772" fuel_perVeh="5.134579" electricity_perVeh="0"/>
        <edge id="gneE113" sampledSeconds="28.23" CO_abs="347.648633" CO2_abs="54333.524897" HC_abs="2.808050" PMx_abs="0.662818" NOx_abs="19.646540" fuel_abs="23.355758" electricity_abs="0"
            CO_normed="28.062835" CO2_normed="4385.901699" HC_normed="0.226671" PMx_normed="0.053504" NOx_normed="1.585905" fuel_normed="1.885320" electricity_normed="0"
            traveltime="6.67" CO_perVeh="82.115682" CO2_perVeh="12833.746499" HC_perVeh="0.663270" PMx_perVeh="0.156560" NOx_perVeh="4.640574" fuel_perVeh="5.516702" electricity_perVeh="0"/>
        <edge id="gneE120" sampledSeconds="6.96" CO_abs="0" CO2_abs="0" HC_abs="0" PMx_abs="0" NOx_abs="0" fuel_abs="0" electricity_abs="0"
            CO_normed="0" CO2_normed="0" HC_normed="0" PMx_normed="0" NOx_normed="0" fuel_normed="0" electricity_normed="0"
            traveltime="6.94" CO_perVeh="0" CO2_perVeh="0" HC_perVeh="0" PMx_perVeh="0" NOx_perVeh="0" fuel_perVeh="0" electricity_perVeh="0"/>
        <edge id="gneE122" sampledSeconds="16.26" CO_abs="553.871007" CO2_abs="48368.315393" HC_abs="3.649619" PMx_abs="0.761939" NOx_abs="19.033429" fuel_abs="20.791464" electricity_abs="0"
            CO_normed="41.240644" CO2_normed="3601.453095" HC_normed="0.271747" PMx_normed="0.056733" NOx_normed="1.417209" fuel_normed="1.548110" electricity_normed="0"
            traveltime="7.71" CO_perVeh="262.777247" CO2_perVeh="22947.748816" HC_perVeh="1.731517" PMx_perVeh="0.361492" NOx_perVeh="9.030175" fuel_perVeh="9.864253" electricity_perVeh="0"/>
        <edge id="gneE123" sampledSeconds="15.52" CO_abs="438.604049" CO2_abs="34000.451324" HC_abs="2.807543" PMx_abs="0.636064" NOx_abs="14.037827" fuel_abs="14.615223" electricity_abs="0"
            CO_normed="32.657989" CO2_normed="2531.637285" HC_normed="0.209047" PMx_normed="0.047361" NOx_normed="1.045242" fuel_normed="1.088234" electricity_normed="0"
            traveltime="7.41" CO_perVeh="209.425356" CO2_perVeh="16234.589356" HC_perVeh="1.340550" PMx_perVeh="0.303709" NOx_perVeh="6.702804" fuel_perVeh="6.978500" electricity_perVeh="0"/>
        <edge id="gneE124" sampledSeconds="9.32" CO_abs="425.569989" CO2_abs="28471.936545" HC_abs="2.601050" PMx_abs="0.472464" NOx_abs="11.497717" fuel_abs="12.238898" electricity_abs="0"
            CO_normed="31.687487" CO2_normed="2119.989980" HC_normed="0.193671" PMx_normed="0.035179" NOx_normed="0.856108" fuel_normed="0.911295" electricity_normed="0"
            traveltime="8.97" CO_perVeh="409.456114" CO2_perVeh="27393.868916" HC_perVeh="2.502563" PMx_perVeh="0.454574" NOx_perVeh="11.062365" fuel_perVeh="11.775482" electricity_perVeh="0"/>
        <edge id="gneE19" sampledSeconds="311.11" CO_abs="48978.004301" CO2_abs="789661.739433" HC_abs="241.556047" PMx_abs="19.708307" NOx_abs="361.265848" fuel_abs="339.464400" electricity_abs="0"
            CO_normed="3953.594263" CO2_normed="63742.942713" HC_normed="19.498847" PMx_normed="1.590891" NOx_normed="29.162041" fuel_normed="27.402188" electricity_normed="0"
            traveltime="311.11" CO_perVeh="48978.616878" CO2_perVeh="789671.615882" HC_perVeh="241.559069" PMx_perVeh="19.708553" NOx_perVeh="361.270366" fuel_perVeh="339.468646" electricity_perVeh="0"/>
        <edge id="gneE22" sampledSeconds="7.00" CO_abs="123.788678" CO2_abs="13895.799687" HC_abs="0.881032" PMx_abs="0.176260" NOx_abs="5.155213" fuel_abs="5.973247" electricity_abs="0"
            CO_normed="9.992449" CO2_normed="1121.694416" HC_normed="0.071119" PMx_normed="0.014228" NOx_normed="0.416138" fuel_normed="0.482171" electricity_normed="0"
            traveltime="7.29" CO_perVeh="128.873760" CO2_perVeh="14466.621535" HC_perVeh="0.917224" PMx_perVeh="0.183500" NOx_perVeh="5.366982" fuel_perVeh="6.218620" electricity_perVeh="0"/>
        <edge id="gneE27" sampledSeconds="8.13" CO_abs="0" CO2_abs="0" HC_abs="0" PMx_abs="0" NOx_abs="0" fuel_abs="0" electricity_abs="0"
            CO_normed="0" CO2_normed="0" HC_normed="0" PMx_normed="0" NOx_normed="0" fuel_normed="0" electricity_normed="0"
            traveltime="7.68" CO_perVeh="0" CO2_perVeh="0" HC_perVeh="0" PMx_perVeh="0" NOx_perVeh="0" fuel_perVeh="0" electricity_perVeh="0"/>
        <edge id="gneE41" sampledSeconds="16.85" CO_abs="868.613760" CO2_abs="56358.151470" HC_abs="5.295012" PMx_abs="1.077354" NOx_abs="23.653158" fuel_abs="24.225827" electricity_abs="0"
            CO_normed="70.116094" CO2_normed="4549.333267" HC_normed="0.427423" PMx_normed="0.086966" NOx_normed="1.909326" fuel_normed="1.955553" electricity_normed="0"
            traveltime="7.96" CO_perVeh="410.338509" CO2_perVeh="26623.939105" HC_perVeh="2.501397" PMx_perVeh="0.508949" NOx_perVeh="11.173898" fuel_perVeh="11.444430" electricity_perVeh="0"/>
        <edge id="gneE46" sampledSeconds="24.11" CO_abs="381.581416" CO2_abs="41067.172606" HC_abs="2.675403" PMx_abs="0.524003" NOx_abs="15.265972" fuel_abs="17.653138" electricity_abs="0"
            CO_normed="30.801951" CO2_normed="3315.017431" HC_normed="0.215963" PMx_normed="0.042298" NOx_normed="1.232297" fuel_normed="1.424994" electricity_normed="0"
            traveltime="7.59" CO_perVeh="120.174280" CO2_perVeh="12933.590784" HC_perVeh="0.842585" PMx_perVeh="0.165028" NOx_perVeh="4.807826" fuel_perVeh="5.559634" electricity_perVeh="0"/>
        <edge id="gneE48" sampledSeconds="9.49" CO_abs="672.220128" CO2_abs="37820.203791" HC_abs="3.963581" PMx_abs="0.762577" NOx_abs="16.219115" fuel_abs="16.257206" electricity_abs="0"
            CO_normed="54.262841" CO2_normed="3052.916158" HC_normed="0.319948" PMx_normed="0.061557" NOx_normed="1.309237" fuel_normed="1.312311" electricity_normed="0"
            traveltime="8.96" CO_perVeh="635.121887" CO2_perVeh="35732.996076" HC_perVeh="3.744840" PMx_perVeh="0.720492" NOx_perVeh="15.324020" fuel_perVeh="15.360009" electricity_perVeh="0"/>
        <edge id="gneE50" sampledSeconds="6.02" CO_abs="84.603352" CO2_abs="14966.097025" HC_abs="0.706018" PMx_abs="0.190100" NOx_abs="5.407450" fuel_abs="6.433293" electricity_abs="0"
            CO_normed="6.829338" CO2_normed="1208.090778" HC_normed="0.056991" PMx_normed="0.015345" NOx_normed="0.436499" fuel_normed="0.519307" electricity_normed="0"
            traveltime="6.02" CO_perVeh="84.603352" CO2_perVeh="14966.097025" HC_perVeh="0.706018" PMx_perVeh="0.190100" NOx_perVeh="5.407450" fuel_perVeh="6.433293" electricity_perVeh="0"/>
        <edge id="gneE53" sampledSeconds="8.01" CO_abs="0" CO2_abs="0" HC_abs="0" PMx_abs="0" NOx_abs="0" fuel_abs="0" electricity_abs="0"
            CO_normed="0" CO2_normed="0" HC_normed="0" PMx_normed="0" NOx_normed="0" fuel_normed="0" electricity_normed="0"
            traveltime="7.57" CO_perVeh="0" CO2_perVeh="0" HC_perVeh="0" PMx_perVeh="0" NOx_perVeh="0" fuel_perVeh="0" electricity_perVeh="0"/>
        <edge id="gneE59" sampledSeconds="16.18" CO_abs="661.560143" CO2_abs="48242.703859" HC_abs="4.152986" PMx_abs="0.865013" NOx_abs="19.728858" fuel_abs="20.737395" electricity_abs="0"
            CO_normed="53.402347" CO2_normed="3894.239463" HC_normed="0.335237" PMx_normed="0.069825" NOx_normed="1.592550" fuel_normed="1.673961" electricity_normed="0"
            traveltime="7.64" CO_perVeh="312.525101" CO2_perVeh="22790.151492" HC_perVeh="1.961896" PMx_perVeh="0.408638" NOx_perVeh="9.320034" fuel_perVeh="9.796473" electricity_perVeh="0"/>
        <edge id="gneE6" sampledSeconds="8.13" CO_abs="0" CO2_abs="0" HC_abs="0" PMx_abs="0" NOx_abs="0" fuel_abs="0" electricity_abs="0"
            CO_normed="0" CO2_normed="0" HC_normed="0" PMx_normed="0" NOx_normed="0" fuel_normed="0" electricity_normed="0"
            traveltime="7.68" CO_perVeh="0" CO2_perVeh="0" HC_perVeh="0" PMx_perVeh="0" NOx_perVeh="0" fuel_perVeh="0" electricity_perVeh="0"/>
        <edge id="gneE60" sampledSeconds="20.70" CO_abs="959.194722" CO2_abs="68266.341766" HC_abs="5.996498" PMx_abs="1.309276" NOx_abs="28.528565" fuel_abs="29.344550" electricity_abs="0"
            CO_normed="77.427956" CO2_normed="5510.584210" HC_normed="0.484048" PMx_normed="0.105687" NOx_normed="2.302878" fuel_normed="2.368746" electricity_normed="0"
            traveltime="6.59" CO_perVeh="305.306587" CO2_perVeh="21728.814117" HC_perVeh="1.908654" PMx_perVeh="0.416735" NOx_perVeh="9.080491" fuel_perVeh="9.340214" electricity_perVeh="0"/>
        <edge id="gneE62" sampledSeconds="6.40" CO_abs="0" CO2_abs="0" HC_abs="0" PMx_abs="0" NOx_abs="0" fuel_abs="0" electricity_abs="0"
            CO_normed="0" CO2_normed="0" HC_normed="0" PMx_normed="0" NOx_normed="0" fuel_normed="0" electricity_normed="0"
            traveltime="6.04" CO_perVeh="0" CO2_perVeh="0" HC_perVeh="0" PMx_perVeh="0" NOx_perVeh="0" fuel_perVeh="0" electricity_perVeh="0"/>
        <edge id="gneE63" sampledSeconds="7.32" CO_abs="0" CO2_abs="0" HC_abs="0" PMx_abs="0" NOx_abs="0" fuel_abs="0" electricity_abs="0"
            CO_normed="0" CO2_normed="0" HC_normed="0" PMx_normed="0" NOx_normed="0" fuel_normed="0" electricity_normed="0"
            traveltime="6.92" CO_perVeh="0" CO2_perVeh="0" HC_perVeh="0" PMx_perVeh="0" NOx_perVeh="0" fuel_perVeh="0" electricity_perVeh="0"/>
        <edge id="gneE64" sampledSeconds="7.29" CO_abs="0" CO2_abs="0" HC_abs="0" PMx_abs="0" NOx_abs="0" fuel_abs="0" electricity_abs="0"
            CO_normed="0" CO2_normed="0" HC_normed="0" PMx_normed="0" NOx_normed="0" fuel_normed="0" electricity_normed="0"
            traveltime="6.89" CO_perVeh="0" CO2_perVeh="0" HC_perVeh="0" PMx_perVeh="0" NOx_perVeh="0" fuel_perVeh="0" electricity_perVeh="0"/>
        <edge id="gneE7" sampledSeconds="7.92" CO_abs="0" CO2_abs="0" HC_abs="0" PMx_abs="0" NOx_abs="0" fuel_abs="0" electricity_abs="0"
            CO_normed="0" CO2_normed="0" HC_normed="0" PMx_normed="0" NOx_normed="0" fuel_normed="0" electricity_normed="0"
            traveltime="7.48" CO_perVeh="0" CO2_perVeh="0" HC_perVeh="0" PMx_perVeh="0" NOx_perVeh="0" fuel_perVeh="0" electricity_perVeh="0"/>
        <edge id="gneE72" sampledSeconds="7.93" CO_abs="0" CO2_abs="0" HC_abs="0" PMx_abs="0" NOx_abs="0" fuel_abs="0" electricity_abs="0"
            CO_normed="0" CO2_normed="0" HC_normed="0" PMx_normed="0" NOx_normed="0" fuel_normed="0" electricity_normed="0"
            traveltime="7.49" CO_perVeh="0" CO2_perVeh="0" HC_perVeh="0" PMx_perVeh="0" NOx_perVeh="0" fuel_perVeh="0" electricity_perVeh="0"/>
        <edge id="gneE75" sampledSeconds="14.43" CO_abs="143.894053" CO2_abs="23798.442628" HC_abs="1.195457" PMx_abs="0.264902" NOx_abs="8.473521" fuel_abs="10.230006" electricity_abs="0"
            CO_normed="11.615392" CO2_normed="1921.053901" HC_normed="0.096500" PMx_normed="0.021383" NOx_normed="0.683998" fuel_normed="0.825785" electricity_normed="0"
            traveltime="6.82" CO_perVeh="67.976440" CO2_perVeh="11242.531396" HC_perVeh="0.564741" PMx_perVeh="0.125141" NOx_perVeh="4.002944" fuel_perVeh="4.832718" electricity_perVeh="0"/>
        <edge id="gneE8" sampledSeconds="7.99" CO_abs="0" CO2_abs="0" HC_abs="0" PMx_abs="0" NOx_abs="0" fuel_abs="0" electricity_abs="0"
            CO_normed="0" CO2_normed="0" HC_normed="0" PMx_normed="0" NOx_normed="0" fuel_normed="0" electricity_normed="0"
            traveltime="7.55" CO_perVeh="0" CO2_perVeh="0" HC_perVeh="0" PMx_perVeh="0" NOx_perVeh="0" fuel_perVeh="0" electricity_perVeh="0"/>
        <edge id="gneE80" sampledSeconds="14.70" CO_abs="202.607484" CO2_abs="22506.547441" HC_abs="1.442572" PMx_abs="0.315292" NOx_abs="8.522837" fuel_abs="9.674620" electricity_abs="0"
            CO_normed="16.354847" CO2_normed="1816.769754" HC_normed="0.116447" PMx_normed="0.025451" NOx_normed="0.687979" fuel_normed="0.780953" electricity_normed="0"
            traveltime="6.94" CO_perVeh="95.713028" CO2_perVeh="10632.232124" HC_perVeh="0.681480" PMx_perVeh="0.148946" NOx_perVeh="4.026241" fuel_perVeh="4.570350" electricity_perVeh="0"/>
        <edge id="gneE81" sampledSeconds="14.41" CO_abs="218.445805" CO2_abs="23613.283309" HC_abs="1.542840" PMx_abs="0.345024" NOx_abs="9.033063" fuel_abs="10.150343" electricity_abs="0"
            CO_normed="17.633346" CO2_normed="1906.107502" HC_normed="0.124541" PMx_normed="0.027851" NOx_normed="0.729165" fuel_normed="0.819354" electricity_normed="0"
            traveltime="6.81" CO_perVeh="103.195148" CO2_perVeh="11155.060989" HC_perVeh="0.728847" PMx_perVeh="0.162992" NOx_perVeh="4.267275" fuel_perVeh="4.795085" electricity_perVeh="0"/>