<?xml version="1.0" encoding="UTF-8"?>

<!-- generated on 01/26/21 17:22:13 by Eclipse SUMO GUI Version 1.7.0
<configuration xmlns:xsi="http://www.w3.org/2001/XMLSchema-instance" xsi:noNamespaceSchemaLocation="http://sumo.dlr.de/xsd/sumoConfiguration.xsd">

    <input>
        <net-file value="case1.net.xml"/>
        <route-files value="case1.rou.xml"/>
        <additional-files value="case1.add.xml"/>
    </input>

    <output>
        <emission-output value="emissionOutput.xml"/>
        <tripinfo-output value="tripinfo.xml"/>
    </output>

    <processing>
        <ignore-route-errors value="true"/>
    </processing>

    <traci_server>
        <remote-port value="53387"/>
    </traci_server>

</configuration>
-->

<tripinfos xmlns:xsi="http://www.w3.org/2001/XMLSchema-instance" xsi:noNamespaceSchemaLocation="http://sumo.dlr.de/xsd/tripinfo_file.xsd">
    <tripinfo id="veh1" depart="10.00" departLane="-gneE118_0" departPos="5.10" departSpeed="0.00" departDelay="0.00" arrival="104.00" arrivalLane="gneE123_0" arrivalPos="92.80" arrivalSpeed="14.44" duration="94.00" routeLength="1189.32" waitingTime="0.00" waitingCount="0" stopTime="0.00" timeLoss="10.66" rerouteNo="1" devices="tripinfo_veh1 routing_veh1 emissions_veh1" vType="eVehicle" speedFactor="1.06" vaporized="">
        <emissions CO_abs="0" CO2_abs="0" HC_abs="0" PMx_abs="0" NOx_abs="0" fuel_abs="0" electricity_abs="0"/>
    </tripinfo>
