<?xml version="1.0" encoding="UTF-8"?>

<!-- generated on 01/11/21 13:17:45 by Eclipse SUMO GUI Version 1.7.0
<configuration xmlns:xsi="http://www.w3.org/2001/XMLSchema-instance" xsi:noNamespaceSchemaLocation="http://sumo.dlr.de/xsd/sumoConfiguration.xsd">

    <input>
        <net-file value="vel0.net.xml"/>
        <route-files value="vel0.rou.xml"/>
        <additional-files value="vel0.add.xml"/>
    </input>

    <output>
        <tripinfo-output value="tripinfo.xml"/>
    </output>

    <traci_server>
        <remote-port value="55750"/>
    </traci_server>

</configuration>
-->

<tripinfos xmlns:xsi="http://www.w3.org/2001/XMLSchema-instance" xsi:noNamespaceSchemaLocation="http://sumo.dlr.de/xsd/tripinfo_file.xsd">
    <tripinfo id="Au0" depart="2.00" departLane="-e3_0" departPos="5.10" departSpeed="0.00" departDelay="0.00" arrival="90.00" arrivalLane="-e1_0" arrivalPos="431.25" arrivalSpeed="14.72" duration="88.00" routeLength="911.58" waitingTime="17.00" waitingCount="1" stopTime="0.00" timeLoss="25.44" rerouteNo="0" devices="tripinfo_Au0" vType="autonomous_car@Au0" speedFactor="1.06" vaporized=""/>
    <tripinfo id="Au3" depart="5.00" departLane="e1_0" departPos="5.10" departSpeed="0.00" departDelay="0.00" arrival="93.00" arrivalLane="e3_0" arrivalPos="464.63" arrivalSpeed="15.04" duration="88.00" routeLength="911.58" waitingTime="18.00" waitingCount="1" stopTime="0.00" timeLoss="26.99" rerouteNo="0" devices="tripinfo_Au3" vType="autonomous_car@Au3" speedFactor="1.08" vaporized=""/>
    <tripinfo id="Au1" depart="5.00" departLane="-e3_0" departPos="5.10" departSpeed="0.00" departDelay="2.00" arrival="101.00" arrivalLane="-e1_0" arrivalPos="431.25" arrivalSpeed="13.03" duration="96.00" routeLength="911.58" waitingTime="18.00" waitingCount="1" stopTime="0.00" timeLoss="25.42" rerouteNo="0" devices="tripinfo_Au1" vType="autonomous_car@Au1" speedFactor="0.94" vaporized=""/>
    <tripinfo id="Au6" depart="14.00" departLane="e1_0" departPos="5.10" departSpeed="0.00" departDelay="0.00" arrival="103.00" arrivalLane="e3_0" arrivalPos="464.63" arrivalSpeed="14.53" duration="89.00" routeLength="911.58" waitingTime="17.00" waitingCount="1" stopTime="0.00" timeLoss="25.59" rerouteNo="0" devices="tripinfo_Au6" vType="autonomous_car@Au6" speedFactor="1.05" vaporized=""/>
    <tripinfo id="NS10" depart="25.00" departLane="e1_0" departPos="5.10" departSpeed="0.00" departDelay="0.00" arrival="114.00" arrivalLane="e3_1" arrivalPos="464.63" arrivalSpeed="15.15" duration="89.00" routeLength="911.58" waitingTime="19.00" waitingCount="1" stopTime="0.00" timeLoss="27.94" rerouteNo="0" devices="tripinfo_NS10" vType="normal_car@NS10" speedFactor="1.09" vaporized=""/>
    <tripinfo id="Au8" depart="18.00" departLane="e1_0" departPos="5.10" departSpeed="0.00" departDelay="0.00" arrival="115.00" arrivalLane="e3_0" arrivalPos="464.63" arrivalSpeed="13.03" duration="97.00" routeLength="911.58" waitingTime="19.00" waitingCount="1" stopTime="0.00" timeLoss="26.83" rerouteNo="0" devices="tripinfo_Au8" vType="autonomous_car@Au8" speedFactor="0.94" vaporized=""/>
    <tripinfo id="NS13" depart="31.00" departLane="e1_0" departPos="5.10" departSpeed="0.00" departDelay="0.00" arrival="119.00" arrivalLane="e3_1" arrivalPos="464.63" arrivalSpeed="15.60" duration="88.00" routeLength="911.58" waitingTime="19.00" waitingCount="1" stopTime="0.00" timeLoss="29.18" rerouteNo="0" devices="tripinfo_NS13" vType="normal_car@NS13" speedFactor="1.12" vaporized=""/>
    <tripinfo id="NS11" depart="28.00" departLane="e1_0" departPos="5.10" departSpeed="0.00" departDelay="0.00" arrival="120.00" arrivalLane="e3_0" arrivalPos="464.63" arrivalSpeed="14.26" duration="92.00" routeLength="911.58" waitingTime="20.00" waitingCount="1" stopTime="0.00" timeLoss="27.48" rerouteNo="0" devices="tripinfo_NS11" vType="normal_car@NS11" speedFactor="1.03" vaporized=""/>
    <tripinfo id="SN14" depart="31.00" departLane="-e3_0" departPos="5.10" departSpeed="0.00" departDelay="0.00" arrival="123.00" arrivalLane="-e1_0" arrivalPos="431.25" arrivalSpeed="13.77" duration="92.00" routeLength="911.58" waitingTime="18.00" waitingCount="1" stopTime="0.00" timeLoss="25.55" rerouteNo="0" devices="tripinfo_SN14" vType="normal_car@SN14" speedFactor="0.99" vaporized=""/>
    <tripinfo id="SN21" depart="45.00" departLane="-e3_0" departPos="5.10" departSpeed="0.00" departDelay="0.00" arrival="137.00" arrivalLane="-e1_0" arrivalPos="431.25" arrivalSpeed="14.03" duration="92.00" routeLength="911.58" waitingTime="18.00" waitingCount="1" stopTime="0.00" timeLoss="26.83" rerouteNo="0" devices="tripinfo_SN21" vType="normal_car@SN21" speedFactor="1.01" vaporized=""/>
    <tripinfo id="NS19" depart="42.00" departLane="e1_0" departPos="5.10" departSpeed="0.00" departDelay="0.00" arrival="141.00" arrivalLane="e3_0" arrivalPos="464.63" arrivalSpeed="16.09" duration="99.00" routeLength="911.58" waitingTime="29.00" waitingCount="2" stopTime="0.00" timeLoss="42.22" rerouteNo="0" devices="tripinfo_NS19" vType="normal_car@NS19" speedFactor="1.16" vaporized=""/>
    <tripinfo id="Au2" depart="4.00" departLane="-e4_0" departPos="5.10" departSpeed="0.00" departDelay="0.00" arrival="142.00" arrivalLane="e2_0" arrivalPos="656.44" arrivalSpeed="14.03" duration="138.00" routeLength="1450.20" waitingTime="24.00" waitingCount="2" stopTime="0.00" timeLoss="34.15" rerouteNo="0" devices="tripinfo_Au2" vType="autonomous_car@Au2" speedFactor="1.01" vaporized=""/>
    <tripinfo id="NS16" depart="35.00" departLane="e1_0" departPos="5.10" departSpeed="0.00" departDelay="0.00" arrival="150.00" arrivalLane="e3_0" arrivalPos="464.63" arrivalSpeed="12.20" duration="115.00" routeLength="911.58" waitingTime="28.00" waitingCount="2" stopTime="0.00" timeLoss="39.32" rerouteNo="0" devices="tripinfo_NS16" vType="normal_car@NS16" speedFactor="0.88" vaporized=""/>
    <tripinfo id="Au4" depart="6.00" departLane="-e2_0" departPos="5.10" departSpeed="0.00" departDelay="0.00" arrival="151.00" arrivalLane="e4_0" arrivalPos="778.04" arrivalSpeed="14.31" duration="145.00" routeLength="1450.19" waitingTime="34.00" waitingCount="2" stopTime="0.00" timeLoss="42.77" rerouteNo="0" devices="tripinfo_Au4" vType="autonomous_car@Au4" speedFactor="1.03" vaporized=""/>
    <tripinfo id="SN27" depart="64.00" departLane="-e3_0" departPos="5.10" departSpeed="0.00" departDelay="0.00" arrival="159.00" arrivalLane="-e1_0" arrivalPos="431.25" arrivalSpeed="13.18" duration="95.00" routeLength="911.58" waitingTime="18.00" waitingCount="1" stopTime="0.00" timeLoss="25.57" rerouteNo="0" devices="tripinfo_SN27" vType="normal_car@SN27" speedFactor="0.95" vaporized=""/>
    <tripinfo id="NS12" depart="30.00" departLane="-e4_0" departPos="5.10" departSpeed="0.00" departDelay="0.00" arrival="161.00" arrivalLane="e2_0" arrivalPos="656.44" arrivalSpeed="14.54" duration="131.00" routeLength="1450.20" waitingTime="19.00" waitingCount="1" stopTime="0.00" timeLoss="30.87" rerouteNo="0" devices="tripinfo_NS12" vType="normal_car@NS12" speedFactor="1.05" vaporized=""/>
    <tripinfo id="NS33" depart="70.00" departLane="e1_0" departPos="5.10" departSpeed="0.00" departDelay="0.00" arrival="164.00" arrivalLane="e3_0" arrivalPos="464.63" arrivalSpeed="16.28" duration="94.00" routeLength="911.58" waitingTime="24.00" waitingCount="2" stopTime="0.00" timeLoss="37.58" rerouteNo="0" devices="tripinfo_NS33" vType="normal_car@NS33" speedFactor="1.17" vaporized=""/>
    <tripinfo id="SN24" depart="59.00" departLane="-e3_0" departPos="5.10" departSpeed="0.00" departDelay="0.00" arrival="165.00" arrivalLane="-e1_0" arrivalPos="431.25" arrivalSpeed="11.47" duration="106.00" routeLength="911.58" waitingTime="18.00" waitingCount="1" stopTime="0.00" timeLoss="25.76" rerouteNo="0" devices="tripinfo_SN24" vType="normal_car@SN24" speedFactor="0.83" vaporized=""/>
    <tripinfo id="SN34" depart="70.00" departLane="-e3_0" departPos="5.10" departSpeed="0.00" departDelay="0.00" arrival="165.00" arrivalLane="-e1_1" arrivalPos="431.25" arrivalSpeed="13.82" duration="95.00" routeLength="911.58" waitingTime="19.00" waitingCount="1" stopTime="0.00" timeLoss="28.06" rerouteNo="0" devices="tripinfo_SN34" vType="normal_car@SN34" speedFactor="0.99" vaporized=""/>
    <tripinfo id="Au7" depart="17.00" departLane="-e4_0" departPos="5.10" departSpeed="0.00" departDelay="0.00" arrival="171.00" arrivalLane="e2_0" arrivalPos="656.44" arrivalSpeed="12.31" duration="154.00" routeLength="1450.20" waitingTime="26.00" waitingCount="2" stopTime="0.00" timeLoss="35.84" rerouteNo="0" devices="tripinfo_Au7" vType="autonomous_car@Au7" speedFactor="0.89" vaporized=""/>
    <tripinfo id="Au5" depart="8.00" departLane="-e4_0" departPos="5.10" departSpeed="0.00" departDelay="0.00" arrival="173.00" arrivalLane="e2_0" arrivalPos="656.44" arrivalSpeed="11.54" duration="165.00" routeLength="1450.20" waitingTime="28.00" waitingCount="2" stopTime="0.00" timeLoss="38.80" rerouteNo="0" devices="tripinfo_Au5" vType="autonomous_car@Au5" speedFactor="0.83" vaporized=""/>
    <tripinfo id="NS23" depart="55.00" departLane="e1_0" departPos="5.10" departSpeed="0.00" departDelay="0.00" arrival="174.00" arrivalLane="e3_0" arrivalPos="464.63" arrivalSpeed="12.36" duration="119.00" routeLength="911.58" waitingTime="33.00" waitingCount="2" stopTime="0.00" timeLoss="44.53" rerouteNo="0" devices="tripinfo_NS23" vType="normal_car@NS23" speedFactor="0.89" vaporized=""/>
    <tripinfo id="NS9" depart="22.00" departLane="-e4_0" departPos="5.10" departSpeed="0.00" departDelay="0.00" arrival="175.00" arrivalLane="e2_0" arrivalPos="656.44" arrivalSpeed="11.90" duration="153.00" routeLength="1450.20" waitingTime="19.00" waitingCount="1" stopTime="0.00" timeLoss="30.52" rerouteNo="0" devices="tripinfo_NS9" vType="normal_car@NS9" speedFactor="0.86" vaporized=""/>
    <tripinfo id="EO17" depart="37.00" departLane="-e2_0" departPos="5.10" departSpeed="0.00" departDelay="0.00" arrival="175.00" arrivalLane="e4_0" arrivalPos="778.04" arrivalSpeed="13.08" duration="138.00" routeLength="1450.19" waitingTime="18.00" waitingCount="1" stopTime="0.00" timeLoss="26.88" rerouteNo="0" devices="tripinfo_EO17" vType="normal_car@EO17" speedFactor="0.94" vaporized=""/>
    <tripinfo id="SN37" depart="80.00" departLane="-e3_0" departPos="5.10" departSpeed="0.00" departDelay="0.00" arrival="176.00" arrivalLane="-e1_0" arrivalPos="431.25" arrivalSpeed="16.39" duration="96.00" routeLength="911.58" waitingTime="29.00" waitingCount="2" stopTime="0.00" timeLoss="39.73" rerouteNo="0" devices="tripinfo_SN37" vType="normal_car@SN37" speedFactor="1.18" vaporized=""/>
    <tripinfo id="SN43" depart="87.00" departLane="-e3_0" departPos="5.10" departSpeed="0.00" departDelay="0.00" arrival="186.00" arrivalLane="-e1_0" arrivalPos="431.25" arrivalSpeed="14.41" duration="99.00" routeLength="911.58" waitingTime="25.00" waitingCount="2" stopTime="0.00" timeLoss="34.78" rerouteNo="0" devices="tripinfo_SN43" vType="normal_car@SN43" speedFactor="1.04" vaporized=""/>
    <tripinfo id="EO30" depart="68.00" departLane="-e2_0" departPos="5.10" departSpeed="0.00" departDelay="2.00" arrival="192.00" arrivalLane="e4_0" arrivalPos="778.04" arrivalSpeed="16.37" duration="124.00" routeLength="1450.19" waitingTime="24.00" waitingCount="2" stopTime="0.00" timeLoss="34.88" rerouteNo="0" devices="tripinfo_EO30" vType="normal_car@EO30" speedFactor="1.18" vaporized=""/>
    <tripinfo id="NS15" depart="33.00" departLane="-e4_0" departPos="5.10" departSpeed="0.00" departDelay="1.00" arrival="195.00" arrivalLane="e2_0" arrivalPos="656.44" arrivalSpeed="12.87" duration="162.00" routeLength="1450.20" waitingTime="35.00" waitingCount="3" stopTime="0.00" timeLoss="48.95" rerouteNo="0" devices="tripinfo_NS15" vType="normal_car@NS15" speedFactor="0.93" vaporized=""/>
    <tripinfo id="EO31" depart="71.00" departLane="-e2_0" departPos="5.10" departSpeed="0.00" departDelay="4.00" arrival="195.00" arrivalLane="e4_0" arrivalPos="778.04" arrivalSpeed="16.04" duration="124.00" routeLength="1450.19" waitingTime="21.00" waitingCount="2" stopTime="0.00" timeLoss="32.61" rerouteNo="0" devices="tripinfo_EO31" vType="normal_car@EO31" speedFactor="1.15" vaporized=""/>
    <tripinfo id="NS18" depart="37.00" departLane="-e4_0" departPos="5.10" departSpeed="0.00" departDelay="0.00" arrival="196.00" arrivalLane="e2_1" arrivalPos="656.44" arrivalSpeed="13.00" duration="159.00" routeLength="1450.20" waitingTime="30.00" waitingCount="3" stopTime="0.00" timeLoss="47.38" rerouteNo="0" devices="tripinfo_NS18" vType="normal_car@NS18" speedFactor="0.94" vaporized=""/>
    <tripinfo id="NS26" depart="62.00" departLane="e1_0" departPos="5.10" departSpeed="0.00" departDelay="0.00" arrival="202.00" arrivalLane="e3_1" arrivalPos="464.63" arrivalSpeed="12.74" duration="140.00" routeLength="911.58" waitingTime="51.00" waitingCount="4" stopTime="0.00" timeLoss="68.31" rerouteNo="0" devices="tripinfo_NS26" vType="normal_car@NS26" speedFactor="0.92" vaporized=""/>
    <tripinfo id="NS48" depart="101.00" departLane="e1_0" departPos="5.10" departSpeed="0.00" departDelay="0.00" arrival="202.00" arrivalLane="e3_0" arrivalPos="464.63" arrivalSpeed="12.18" duration="101.00" routeLength="911.58" waitingTime="18.00" waitingCount="1" stopTime="0.00" timeLoss="26.05" rerouteNo="0" devices="tripinfo_NS48" vType="normal_car@NS48" speedFactor="0.88" vaporized=""/>
    <tripinfo id="NS20" depart="44.00" departLane="-e4_0" departPos="5.10" departSpeed="0.00" departDelay="0.00" arrival="206.00" arrivalLane="e2_0" arrivalPos="656.44" arrivalSpeed="14.14" duration="162.00" routeLength="1450.20" waitingTime="43.00" waitingCount="3" stopTime="0.00" timeLoss="59.18" rerouteNo="0" devices="tripinfo_NS20" vType="normal_car@NS20" speedFactor="1.02" vaporized=""/>
    <tripinfo id="EO29" depart="65.00" departLane="-e2_0" departPos="5.10" departSpeed="0.00" departDelay="0.00" arrival="206.00" arrivalLane="e4_0" arrivalPos="778.04" arrivalSpeed="12.94" duration="141.00" routeLength="1450.19" waitingTime="19.00" waitingCount="1" stopTime="0.00" timeLoss="28.67" rerouteNo="0" devices="tripinfo_EO29" vType="normal_car@EO29" speedFactor="0.93" vaporized=""/>
    <tripinfo id="SN39" depart="83.00" departLane="-e3_0" departPos="5.10" departSpeed="0.00" departDelay="2.00" arrival="207.00" arrivalLane="-e1_0" arrivalPos="431.25" arrivalSpeed="12.51" duration="124.00" routeLength="911.58" waitingTime="39.00" waitingCount="2" stopTime="0.00" timeLoss="50.75" rerouteNo="0" devices="tripinfo_SN39" vType="normal_car@SN39" speedFactor="0.90" vaporized=""/>
    <tripinfo id="EO25" depart="59.00" departLane="-e2_0" departPos="5.10" departSpeed="0.00" departDelay="0.00" arrival="208.00" arrivalLane="e4_0" arrivalPos="778.04" arrivalSpeed="12.12" duration="149.00" routeLength="1450.19" waitingTime="19.00" waitingCount="2" stopTime="0.00" timeLoss="29.13" rerouteNo="0" devices="tripinfo_EO25" vType="normal_car@EO25" speedFactor="0.87" vaporized=""/>
    <tripinfo id="SN45" depart="93.00" departLane="-e3_0" departPos="5.10" departSpeed="0.00" departDelay="0.00" arrival="208.00" arrivalLane="-e1_1" arrivalPos="431.25" arrivalSpeed="15.11" duration="115.00" routeLength="911.58" waitingTime="38.00" waitingCount="2" stopTime="0.00" timeLoss="54.20" rerouteNo="0" devices="tripinfo_SN45" vType="normal_car@SN45" speedFactor="1.09" vaporized=""/>
    <tripinfo id="NS52" depart="116.00" departLane="e1_0" departPos="5.10" departSpeed="0.00" departDelay="0.00" arrival="208.00" arrivalLane="e3_0" arrivalPos="464.63" arrivalSpeed="14.12" duration="92.00" routeLength="911.58" waitingTime="18.00" waitingCount="1" stopTime="0.00" timeLoss="26.84" rerouteNo="0" devices="tripinfo_NS52" vType="normal_car@NS52" speedFactor="1.02" vaporized=""/>
    <tripinfo id="EO32" depart="74.00" departLane="-e2_0" departPos="5.10" departSpeed="0.00" departDelay="5.00" arrival="217.00" arrivalLane="e4_0" arrivalPos="778.04" arrivalSpeed="13.96" duration="143.00" routeLength="1450.19" waitingTime="27.00" waitingCount="2" stopTime="0.00" timeLoss="38.56" rerouteNo="0" devices="tripinfo_EO32" vType="normal_car@EO32" speedFactor="1.01" vaporized=""/>
    <tripinfo id="NS22" depart="50.00" departLane="-e4_0" departPos="5.10" departSpeed="0.00" departDelay="0.00" arrival="219.00" arrivalLane="e2_0" arrivalPos="656.44" arrivalSpeed="13.54" duration="169.00" routeLength="1450.20" waitingTime="42.00" waitingCount="4" stopTime="0.00" timeLoss="60.94" rerouteNo="0" devices="tripinfo_NS22" vType="normal_car@NS22" speedFactor="0.98" vaporized=""/>
    <tripinfo id="EO36" depart="77.00" departLane="-e2_0" departPos="5.10" departSpeed="0.00" departDelay="2.00" arrival="225.00" arrivalLane="e4_0" arrivalPos="778.04" arrivalSpeed="13.52" duration="148.00" routeLength="1450.19" waitingTime="30.00" waitingCount="2" stopTime="0.00" timeLoss="40.40" rerouteNo="0" devices="tripinfo_EO36" vType="normal_car@EO36" speedFactor="0.97" vaporized=""/>
    <tripinfo id="EO40" depart="81.00" departLane="-e2_0" departPos="5.10" departSpeed="0.00" departDelay="0.00" arrival="230.00" arrivalLane="e4_0" arrivalPos="778.04" arrivalSpeed="14.31" duration="149.00" routeLength="1450.19" waitingTime="35.00" waitingCount="2" stopTime="0.00" timeLoss="47.38" rerouteNo="0" devices="tripinfo_EO40" vType="normal_car@EO40" speedFactor="1.03" vaporized=""/>
    <tripinfo id="NS60" depart="145.00" departLane="e1_0" departPos="5.10" departSpeed="0.00" departDelay="0.00" arrival="233.00" arrivalLane="e3_0" arrivalPos="464.63" arrivalSpeed="15.04" duration="88.00" routeLength="911.58" waitingTime="18.00" waitingCount="1" stopTime="0.00" timeLoss="26.76" rerouteNo="0" devices="tripinfo_NS60" vType="normal_car@NS60" speedFactor="1.08" vaporized=""/>
    <tripinfo id="SN46" depart="96.00" departLane="-e3_0" departPos="5.10" departSpeed="0.00" departDelay="2.00" arrival="236.00" arrivalLane="-e1_0" arrivalPos="431.25" arrivalSpeed="13.85" duration="140.00" routeLength="911.58" waitingTime="53.00" waitingCount="4" stopTime="0.00" timeLoss="73.21" rerouteNo="0" devices="tripinfo_SN46" vType="normal_car@SN46" speedFactor="1.00" vaporized=""/>
    <tripinfo id="SN49" depart="101.00" departLane="-e3_0" departPos="5.10" departSpeed="0.00" departDelay="0.00" arrival="240.00" arrivalLane="-e1_0" arrivalPos="431.25" arrivalSpeed="11.81" duration="139.00" routeLength="911.58" waitingTime="47.00" waitingCount="3" stopTime="0.00" timeLoss="61.79" rerouteNo="0" devices="tripinfo_SN49" vType="normal_car@SN49" speedFactor="0.85" vaporized=""/>
    <tripinfo id="NS28" depart="64.00" departLane="-e4_0" departPos="5.10" departSpeed="0.00" departDelay="0.00" arrival="248.00" arrivalLane="e2_0" arrivalPos="656.44" arrivalSpeed="15.72" duration="184.00" routeLength="1450.20" waitingTime="69.00" waitingCount="5" stopTime="0.00" timeLoss="91.27" rerouteNo="0" devices="tripinfo_NS28" vType="normal_car@NS28" speedFactor="1.13" vaporized=""/>
    <tripinfo id="NS35" depart="71.00" departLane="-e4_0" departPos="5.10" departSpeed="0.00" departDelay="0.00" arrival="252.00" arrivalLane="e2_0" arrivalPos="656.44" arrivalSpeed="14.16" duration="181.00" routeLength="1450.20" waitingTime="57.00" waitingCount="3" stopTime="0.00" timeLoss="78.34" rerouteNo="0" devices="tripinfo_NS35" vType="normal_car@NS35" speedFactor="1.02" vaporized=""/>
    <tripinfo id="EO51" depart="108.00" departLane="-e2_0" departPos="5.10" departSpeed="0.00" departDelay="0.00" arrival="252.00" arrivalLane="e4_0" arrivalPos="778.04" arrivalSpeed="16.24" duration="144.00" routeLength="1450.19" waitingTime="35.00" waitingCount="3" stopTime="0.00" timeLoss="53.84" rerouteNo="0" devices="tripinfo_EO51" vType="normal_car@EO51" speedFactor="1.17" vaporized=""/>
    <tripinfo id="SN59" depart="142.00" departLane="-e3_0" departPos="5.10" departSpeed="0.00" departDelay="0.00" arrival="252.00" arrivalLane="-e1_0" arrivalPos="431.25" arrivalSpeed="13.47" duration="110.00" routeLength="911.58" waitingTime="31.00" waitingCount="2" stopTime="0.00" timeLoss="41.37" rerouteNo="0" devices="tripinfo_SN59" vType="normal_car@SN59" speedFactor="0.97" vaporized=""/>
    <tripinfo id="NS38" depart="80.00" departLane="-e4_0" departPos="5.10" departSpeed="0.00" departDelay="0.00" arrival="257.00" arrivalLane="e2_0" arrivalPos="656.44" arrivalSpeed="15.31" duration="177.00" routeLength="1450.20" waitingTime="59.00" waitingCount="4" stopTime="0.00" timeLoss="81.98" rerouteNo="0" devices="tripinfo_NS38" vType="normal_car@NS38" speedFactor="1.10" vaporized=""/>
    <tripinfo id="SN63" depart="158.00" departLane="-e3_0" departPos="5.10" departSpeed="0.00" departDelay="0.00" arrival="257.00" arrivalLane="-e1_0" arrivalPos="431.25" arrivalSpeed="13.71" duration="99.00" routeLength="911.58" waitingTime="20.00" waitingCount="1" stopTime="0.00" timeLoss="32.06" rerouteNo="0" devices="tripinfo_SN63" vType="normal_car@SN63" speedFactor="0.99" vaporized=""/>
    <tripinfo id="EO42" depart="85.00" departLane="-e2_0" departPos="5.10" departSpeed="0.00" departDelay="0.00" arrival="258.00" arrivalLane="e4_0" arrivalPos="778.04" arrivalSpeed="15.17" duration="173.00" routeLength="1450.19" waitingTime="58.00" waitingCount="5" stopTime="0.00" timeLoss="77.38" rerouteNo="0" devices="tripinfo_EO42" vType="normal_car@EO42" speedFactor="1.09" vaporized=""/>
    <tripinfo id="NS68" depart="169.00" departLane="e1_0" departPos="5.10" departSpeed="0.00" departDelay="0.00" arrival="259.00" arrivalLane="e3_0" arrivalPos="464.63" arrivalSpeed="14.44" duration="90.00" routeLength="911.58" waitingTime="18.00" waitingCount="1" stopTime="0.00" timeLoss="26.04" rerouteNo="0" devices="tripinfo_NS68" vType="normal_car@NS68" speedFactor="1.04" vaporized=""/>
    <tripinfo id="NS41" depart="83.00" departLane="-e4_0" departPos="5.10" departSpeed="0.00" departDelay="0.00" arrival="262.00" arrivalLane="e2_0" arrivalPos="656.44" arrivalSpeed="13.29" duration="179.00" routeLength="1450.20" waitingTime="51.00" waitingCount="3" stopTime="0.00" timeLoss="69.49" rerouteNo="0" devices="tripinfo_NS41" vType="normal_car@NS41" speedFactor="0.96" vaporized=""/>
    <tripinfo id="NS72" depart="172.00" departLane="e1_0" departPos="5.10" departSpeed="0.00" departDelay="0.00" arrival="269.00" arrivalLane="e3_0" arrivalPos="464.63" arrivalSpeed="13.06" duration="97.00" routeLength="911.58" waitingTime="18.00" waitingCount="1" stopTime="0.00" timeLoss="26.77" rerouteNo="0" devices="tripinfo_NS72" vType="normal_car@NS72" speedFactor="0.94" vaporized=""/>
    <tripinfo id="NS74" depart="175.00" departLane="e1_0" departPos="5.10" departSpeed="0.00" departDelay="0.00" arrival="271.00" arrivalLane="e3_0" arrivalPos="464.63" arrivalSpeed="13.27" duration="96.00" routeLength="911.58" waitingTime="20.00" waitingCount="1" stopTime="0.00" timeLoss="27.04" rerouteNo="0" devices="tripinfo_NS74" vType="normal_car@NS74" speedFactor="0.96" vaporized=""/>
    <tripinfo id="NS76" depart="181.00" departLane="e1_0" departPos="5.10" departSpeed="0.00" departDelay="0.00" arrival="273.00" arrivalLane="e3_0" arrivalPos="464.63" arrivalSpeed="14.34" duration="92.00" routeLength="911.58" waitingTime="20.00" waitingCount="1" stopTime="0.00" timeLoss="28.36" rerouteNo="0" devices="tripinfo_NS76" vType="normal_car@NS76" speedFactor="1.03" vaporized=""/>
    <tripinfo id="NS44" depart="90.00" departLane="-e4_0" departPos="5.10" departSpeed="0.00" departDelay="0.00" arrival="274.00" arrivalLane="e2_0" arrivalPos="656.44" arrivalSpeed="14.49" duration="184.00" routeLength="1450.20" waitingTime="63.00" waitingCount="4" stopTime="0.00" timeLoss="83.35" rerouteNo="0" devices="tripinfo_NS44" vType="normal_car@NS44" speedFactor="1.04" vaporized=""/>
    <tripinfo id="SN64" depart="161.00" departLane="-e3_0" departPos="5.10" departSpeed="0.00" departDelay="2.00" arrival="276.00" arrivalLane="-e1_0" arrivalPos="431.25" arrivalSpeed="13.02" duration="115.00" routeLength="911.58" waitingTime="33.00" waitingCount="2" stopTime="0.00" timeLoss="44.22" rerouteNo="0" devices="tripinfo_SN64" vType="normal_car@SN64" speedFactor="0.94" vaporized=""/>
    <tripinfo id="SN66" depart="165.00" departLane="-e3_0" departPos="5.10" departSpeed="0.00" departDelay="0.00" arrival="283.00" arrivalLane="-e1_0" arrivalPos="431.25" arrivalSpeed="12.60" duration="118.00" routeLength="911.58" waitingTime="33.00" waitingCount="2" stopTime="0.00" timeLoss="45.51" rerouteNo="0" devices="tripinfo_SN66" vType="normal_car@SN66" speedFactor="0.91" vaporized=""/>
    <tripinfo id="EO56" depart="128.00" departLane="-e2_0" departPos="5.10" departSpeed="0.00" departDelay="0.00" arrival="284.00" arrivalLane="e4_0" arrivalPos="778.04" arrivalSpeed="12.49" duration="156.00" routeLength="1450.19" waitingTime="26.00" waitingCount="2" stopTime="0.00" timeLoss="39.31" rerouteNo="0" devices="tripinfo_EO56" vType="normal_car@EO56" speedFactor="0.90" vaporized=""/>
    <tripinfo id="EO54" depart="122.00" departLane="-e2_0" departPos="5.10" departSpeed="0.00" departDelay="0.00" arrival="286.00" arrivalLane="e4_0" arrivalPos="778.04" arrivalSpeed="13.93" duration="164.00" routeLength="1450.19" waitingTime="45.00" waitingCount="3" stopTime="0.00" timeLoss="59.46" rerouteNo="0" devices="tripinfo_EO54" vType="normal_car@EO54" speedFactor="1.00" vaporized=""/>
    <tripinfo id="NS82" depart="194.00" departLane="e1_0" departPos="5.10" departSpeed="0.00" departDelay="0.00" arrival="287.00" arrivalLane="e3_0" arrivalPos="464.63" arrivalSpeed="14.12" duration="93.00" routeLength="911.58" waitingTime="21.00" waitingCount="1" stopTime="0.00" timeLoss="28.43" rerouteNo="0" devices="tripinfo_NS82" vType="normal_car@NS82" speedFactor="1.02" vaporized=""/>
    <tripinfo id="EO61" depart="150.00" departLane="-e2_0" departPos="5.10" departSpeed="0.00" departDelay="0.00" arrival="288.00" arrivalLane="e4_0" arrivalPos="778.04" arrivalSpeed="15.55" duration="138.00" routeLength="1450.19" waitingTime="31.00" waitingCount="2" stopTime="0.00" timeLoss="43.98" rerouteNo="0" devices="tripinfo_EO61" vType="normal_car@EO61" speedFactor="1.12" vaporized=""/>
    <tripinfo id="NS47" depart="96.00" departLane="-e4_0" departPos="5.10" departSpeed="0.00" departDelay="0.00" arrival="291.00" arrivalLane="e2_0" arrivalPos="656.44" arrivalSpeed="12.51" duration="195.00" routeLength="1450.20" waitingTime="53.00" waitingCount="3" stopTime="0.00" timeLoss="79.06" rerouteNo="0" devices="tripinfo_NS47" vType="normal_car@NS47" speedFactor="0.90" vaporized=""/>
    <tripinfo id="EO69" depart="170.00" departLane="-e2_0" departPos="5.10" departSpeed="0.00" departDelay="0.00" arrival="300.00" arrivalLane="e4_0" arrivalPos="778.04" arrivalSpeed="14.20" duration="130.00" routeLength="1450.19" waitingTime="18.00" waitingCount="1" stopTime="0.00" timeLoss="27.07" rerouteNo="0" devices="tripinfo_EO69" vType="normal_car@EO69" speedFactor="1.02" vaporized=""/>
    <tripinfo id="NS89" depart="209.00" departLane="e1_0" departPos="5.10" departSpeed="0.00" departDelay="0.00" arrival="300.00" arrivalLane="e3_0" arrivalPos="464.63" arrivalSpeed="14.20" duration="91.00" routeLength="911.58" waitingTime="19.00" waitingCount="1" stopTime="0.00" timeLoss="26.06" rerouteNo="0" devices="tripinfo_NS89" vType="normal_car@NS89" speedFactor="1.02" vaporized=""/>
    <tripinfo id="SN67" depart="168.00" departLane="-e3_0" departPos="5.10" departSpeed="0.00" departDelay="0.00" arrival="304.00" arrivalLane="-e1_0" arrivalPos="431.25" arrivalSpeed="12.70" duration="136.00" routeLength="911.58" waitingTime="45.00" waitingCount="4" stopTime="0.00" timeLoss="63.91" rerouteNo="0" devices="tripinfo_SN67" vType="normal_car@SN67" speedFactor="0.91" vaporized=""/>
    <tripinfo id="SN73" depart="174.00" departLane="-e3_0" departPos="5.10" departSpeed="0.00" departDelay="2.00" arrival="304.00" arrivalLane="-e1_1" arrivalPos="431.25" arrivalSpeed="14.66" duration="130.00" routeLength="911.58" waitingTime="50.00" waitingCount="3" stopTime="0.00" timeLoss="67.60" rerouteNo="0" devices="tripinfo_SN73" vType="normal_car@SN73" speedFactor="1.06" vaporized=""/>
    <tripinfo id="NS57" depart="132.00" departLane="-e4_0" departPos="5.10" departSpeed="0.00" departDelay="0.00" arrival="317.00" arrivalLane="e2_0" arrivalPos="656.44" arrivalSpeed="15.87" duration="185.00" routeLength="1450.20" waitingTime="70.00" waitingCount="4" stopTime="0.00" timeLoss="93.62" rerouteNo="0" devices="tripinfo_NS57" vType="normal_car@NS57" speedFactor="1.14" vaporized=""/>
    <tripinfo id="NS53" depart="116.00" departLane="-e4_0" departPos="5.10" departSpeed="0.00" departDelay="0.00" arrival="320.00" arrivalLane="e2_0" arrivalPos="656.44" arrivalSpeed="15.22" duration="204.00" routeLength="1450.20" waitingTime="83.00" waitingCount="5" stopTime="0.00" timeLoss="108.17" rerouteNo="0" devices="tripinfo_NS53" vType="normal_car@NS53" speedFactor="1.10" vaporized=""/>
    <tripinfo id="SN71" depart="171.00" departLane="-e3_0" departPos="5.10" departSpeed="0.00" departDelay="0.00" arrival="321.00" arrivalLane="-e1_0" arrivalPos="431.25" arrivalSpeed="13.51" duration="150.00" routeLength="911.58" waitingTime="62.00" waitingCount="4" stopTime="0.00" timeLoss="82.51" rerouteNo="0" devices="tripinfo_SN71" vType="normal_car@SN71" speedFactor="0.97" vaporized=""/>
    <tripinfo id="NS94" depart="233.00" departLane="e1_0" departPos="5.10" departSpeed="0.00" departDelay="0.00" arrival="321.00" arrivalLane="e3_0" arrivalPos="464.63" arrivalSpeed="15.15" duration="88.00" routeLength="911.58" waitingTime="19.00" waitingCount="1" stopTime="0.00" timeLoss="27.48" rerouteNo="0" devices="tripinfo_NS94" vType="normal_car@NS94" speedFactor="1.09" vaporized=""/>
    <tripinfo id="EO77" depart="182.00" departLane="-e2_0" departPos="5.10" departSpeed="0.00" departDelay="0.00" arrival="326.00" arrivalLane="e4_0" arrivalPos="778.04" arrivalSpeed="13.64" duration="144.00" routeLength="1450.19" waitingTime="24.00" waitingCount="2" stopTime="0.00" timeLoss="37.57" rerouteNo="0" devices="tripinfo_EO77" vType="normal_car@EO77" speedFactor="0.98" vaporized=""/>