<?xml version="1.0" encoding="UTF-8"?>

<!-- generated on 12/11/20 17:20:53 by Eclipse SUMO GUI Version 1.7.0
<configuration xmlns:xsi="http://www.w3.org/2001/XMLSchema-instance" xsi:noNamespaceSchemaLocation="http://sumo.dlr.de/xsd/sumoConfiguration.xsd">

    <input>
        <net-file value="intersec_TL.net.xml"/>
        <route-files value="intersec_TL.rou.xml"/>
    </input>

    <output>
        <tripinfo-output value="tripinfo.xml"/>
    </output>

    <traci_server>
        <remote-port value="62467"/>
    </traci_server>

</configuration>
-->

<tripinfos xmlns:xsi="http://www.w3.org/2001/XMLSchema-instance" xsi:noNamespaceSchemaLocation="http://sumo.dlr.de/xsd/tripinfo_file.xsd">
    <tripinfo id="Au0" depart="2.00" departLane="-e3_0" departPos="6.60" departSpeed="0.00" departDelay="0.00" arrival="73.00" arrivalLane="-e1_0" arrivalPos="431.26" arrivalSpeed="13.77" duration="71.00" routeLength="910.08" waitingTime="0.00" waitingCount="0" stopTime="0.00" timeLoss="5.23" rerouteNo="0" devices="tripinfo_Au0 bluelight_Au0" vType="autonomous_car" speedFactor="1.00" vaporized="">
        <bluelight/>
    </tripinfo>
    <tripinfo id="Au3" depart="5.00" departLane="e1_0" departPos="6.60" departSpeed="0.00" departDelay="0.00" arrival="76.00" arrivalLane="e3_0" arrivalPos="464.62" arrivalSpeed="12.83" duration="71.00" routeLength="910.08" waitingTime="0.00" waitingCount="0" stopTime="0.00" timeLoss="5.40" rerouteNo="0" devices="tripinfo_Au3 bluelight_Au3" vType="autonomous_car" speedFactor="1.00" vaporized="">
        <bluelight/>
    </tripinfo>
    <tripinfo id="Au1" depart="5.00" departLane="-e3_0" departPos="6.60" departSpeed="0.00" departDelay="2.00" arrival="77.00" arrivalLane="-e1_0" arrivalPos="431.26" arrivalSpeed="12.75" duration="72.00" routeLength="910.08" waitingTime="0.00" waitingCount="0" stopTime="0.00" timeLoss="6.16" rerouteNo="0" devices="tripinfo_Au1 bluelight_Au1" vType="autonomous_car" speedFactor="1.00" vaporized="">
        <bluelight/>
    </tripinfo>
    <tripinfo id="Au6" depart="14.00" departLane="e1_0" departPos="6.60" departSpeed="0.00" departDelay="0.00" arrival="86.00" arrivalLane="e3_0" arrivalPos="464.62" arrivalSpeed="13.76" duration="72.00" routeLength="910.08" waitingTime="0.00" waitingCount="0" stopTime="0.00" timeLoss="5.88" rerouteNo="0" devices="tripinfo_Au6 bluelight_Au6" vType="autonomous_car" speedFactor="1.00" vaporized="">
        <bluelight/>
    </tripinfo>
    <tripinfo id="Au8" depart="18.00" departLane="e1_0" departPos="6.60" departSpeed="0.00" departDelay="0.00" arrival="90.00" arrivalLane="e3_0" arrivalPos="464.62" arrivalSpeed="13.08" duration="72.00" routeLength="910.08" waitingTime="0.00" waitingCount="0" stopTime="0.00" timeLoss="5.73" rerouteNo="0" devices="tripinfo_Au8 bluelight_Au8" vType="autonomous_car" speedFactor="1.00" vaporized="">
        <bluelight/>
    </tripinfo>
    <tripinfo id="Au2" depart="4.00" departLane="-e4_0" departPos="6.60" departSpeed="0.00" departDelay="0.00" arrival="116.00" arrivalLane="e2_0" arrivalPos="656.44" arrivalSpeed="13.39" duration="112.00" routeLength="1448.70" waitingTime="0.00" waitingCount="0" stopTime="0.00" timeLoss="7.47" rerouteNo="0" devices="tripinfo_Au2 bluelight_Au2" vType="autonomous_car" speedFactor="1.00" vaporized="">
        <bluelight/>
    </tripinfo>
    <tripinfo id="Au4" depart="6.00" departLane="-e2_0" departPos="6.60" departSpeed="0.00" departDelay="0.00" arrival="119.00" arrivalLane="e4_0" arrivalPos="778.04" arrivalSpeed="13.47" duration="113.00" routeLength="1448.69" waitingTime="0.00" waitingCount="0" stopTime="0.00" timeLoss="8.12" rerouteNo="0" devices="tripinfo_Au4 bluelight_Au4" vType="autonomous_car" speedFactor="1.00" vaporized="">
        <bluelight/>
    </tripinfo>
    <tripinfo id="Au5" depart="8.00" departLane="-e4_0" departPos="6.60" departSpeed="0.00" departDelay="0.00" arrival="121.00" arrivalLane="e2_0" arrivalPos="656.44" arrivalSpeed="13.14" duration="113.00" routeLength="1448.70" waitingTime="0.00" waitingCount="0" stopTime="0.00" timeLoss="7.84" rerouteNo="0" devices="tripinfo_Au5 bluelight_Au5" vType="autonomous_car" speedFactor="1.00" vaporized="">
        <bluelight/>
    </tripinfo>
    <tripinfo id="Au7" depart="17.00" departLane="-e4_0" departPos="6.60" departSpeed="0.00" departDelay="0.00" arrival="130.00" arrivalLane="e2_0" arrivalPos="656.44" arrivalSpeed="12.89" duration="113.00" routeLength="1448.70" waitingTime="0.00" waitingCount="0" stopTime="0.00" timeLoss="7.93" rerouteNo="0" devices="tripinfo_Au7 bluelight_Au7" vType="autonomous_car" speedFactor="1.00" vaporized="">
        <bluelight/>
    </tripinfo>
