<?xml version="1.0" encoding="UTF-8"?>

<!-- generated on 12/09/20 18:30:38 by Eclipse SUMO GUI Version 1.7.0
<configuration xmlns:xsi="http://www.w3.org/2001/XMLSchema-instance" xsi:noNamespaceSchemaLocation="http://sumo.dlr.de/xsd/sumoConfiguration.xsd">

    <input>
        <net-file value="intersec_TL.net.xml"/>
        <route-files value="intersec_TL.rou.xml"/>
    </input>

    <output>
        <tripinfo-output value="tripinfo.xml"/>
    </output>

    <traci_server>
        <remote-port value="53912"/>
    </traci_server>

</configuration>
-->

<tripinfos xmlns:xsi="http://www.w3.org/2001/XMLSchema-instance" xsi:noNamespaceSchemaLocation="http://sumo.dlr.de/xsd/tripinfo_file.xsd">
    <tripinfo id="Au0" depart="2.00" departLane="-e3_0" departPos="5.10" departSpeed="0.00" departDelay="0.00" arrival="373.00" arrivalLane="-e1_0" arrivalPos="431.26" arrivalSpeed="14.44" duration="371.00" routeLength="890.78" waitingTime="301.00" waitingCount="1" stopTime="0.00" timeLoss="310.00" rerouteNo="0" devices="tripinfo_Au0" vType="autonomous_car" speedFactor="1.06" vaporized=""/>
    <tripinfo id="Au3" depart="5.00" departLane="e1_0" departPos="5.10" departSpeed="0.00" departDelay="0.00" arrival="374.00" arrivalLane="e3_0" arrivalPos="464.62" arrivalSpeed="14.24" duration="369.00" routeLength="890.78" waitingTime="301.00" waitingCount="1" stopTime="0.00" timeLoss="309.96" rerouteNo="0" devices="tripinfo_Au3" vType="autonomous_car" speedFactor="1.08" vaporized=""/>
    <tripinfo id="Au1" depart="5.00" departLane="-e3_0" departPos="5.10" departSpeed="0.00" departDelay="2.00" arrival="383.00" arrivalLane="-e1_0" arrivalPos="431.26" arrivalSpeed="11.89" duration="378.00" routeLength="890.78" waitingTime="301.00" waitingCount="1" stopTime="0.00" timeLoss="309.79" rerouteNo="0" devices="tripinfo_Au1" vType="autonomous_car" speedFactor="0.94" vaporized=""/>
    <tripinfo id="Au6" depart="14.00" departLane="e1_0" departPos="5.10" departSpeed="0.00" departDelay="0.00" arrival="385.00" arrivalLane="e3_0" arrivalPos="464.62" arrivalSpeed="13.70" duration="371.00" routeLength="890.78" waitingTime="301.00" waitingCount="1" stopTime="0.00" timeLoss="310.08" rerouteNo="0" devices="tripinfo_Au6" vType="autonomous_car" speedFactor="1.05" vaporized=""/>
    <tripinfo id="Au2" depart="4.00" departLane="-e4_0" departPos="5.10" departSpeed="0.00" departDelay="0.00" arrival="417.00" arrivalLane="e2_0" arrivalPos="656.44" arrivalSpeed="13.82" duration="413.00" routeLength="1429.38" waitingTime="301.00" waitingCount="1" stopTime="0.00" timeLoss="311.11" rerouteNo="0" devices="tripinfo_Au2" vType="autonomous_car" speedFactor="1.01" vaporized=""/>
    <tripinfo id="Au4" depart="6.00" departLane="-e2_0" departPos="5.10" departSpeed="0.00" departDelay="0.00" arrival="417.00" arrivalLane="e4_0" arrivalPos="778.04" arrivalSpeed="13.31" duration="411.00" routeLength="1429.38" waitingTime="301.00" waitingCount="1" stopTime="0.00" timeLoss="311.31" rerouteNo="0" devices="tripinfo_Au4" vType="autonomous_car" speedFactor="1.03" vaporized=""/>
    <tripinfo id="Au5" depart="8.00" departLane="-e4_0" departPos="5.10" departSpeed="0.00" departDelay="0.00" arrival="444.00" arrivalLane="e2_0" arrivalPos="656.44" arrivalSpeed="11.42" duration="436.00" routeLength="1429.38" waitingTime="301.00" waitingCount="1" stopTime="0.00" timeLoss="311.75" rerouteNo="0" devices="tripinfo_Au5" vType="autonomous_car" speedFactor="0.83" vaporized=""/>
    <tripinfo id="EO17" depart="37.00" departLane="-e2_0" departPos="5.10" departSpeed="0.00" departDelay="0.00" arrival="459.00" arrivalLane="e4_0" arrivalPos="778.04" arrivalSpeed="12.85" duration="422.00" routeLength="1429.38" waitingTime="301.00" waitingCount="1" stopTime="0.00" timeLoss="312.20" rerouteNo="0" devices="tripinfo_EO17" vType="normal_car" speedFactor="0.94" vaporized=""/>
    <tripinfo id="NS10" depart="25.00" departLane="e1_0" departPos="5.10" departSpeed="0.00" departDelay="0.00" arrival="680.00" arrivalLane="e3_0" arrivalPos="464.62" arrivalSpeed="13.93" duration="655.00" routeLength="890.78" waitingTime="583.00" waitingCount="2" stopTime="0.00" timeLoss="596.21" rerouteNo="0" devices="tripinfo_NS10" vType="normal_car" speedFactor="1.09" vaporized=""/>
    <tripinfo id="SN14" depart="31.00" departLane="-e3_0" departPos="5.10" departSpeed="0.00" departDelay="0.00" arrival="680.00" arrivalLane="-e1_0" arrivalPos="431.26" arrivalSpeed="13.15" duration="649.00" routeLength="890.78" waitingTime="571.00" waitingCount="2" stopTime="0.00" timeLoss="584.21" rerouteNo="0" devices="tripinfo_SN14" vType="normal_car" speedFactor="0.99" vaporized=""/>
    <tripinfo id="SN21" depart="45.00" departLane="-e3_0" departPos="5.10" departSpeed="0.00" departDelay="0.00" arrival="685.00" arrivalLane="-e1_0" arrivalPos="431.26" arrivalSpeed="12.76" duration="640.00" routeLength="890.78" waitingTime="563.00" waitingCount="2" stopTime="0.00" timeLoss="576.71" rerouteNo="0" devices="tripinfo_SN21" vType="normal_car" speedFactor="1.01" vaporized=""/>
    <tripinfo id="Au8" depart="18.00" departLane="e1_0" departPos="5.10" departSpeed="0.00" departDelay="0.00" arrival="695.00" arrivalLane="e3_0" arrivalPos="464.62" arrivalSpeed="12.22" duration="677.00" routeLength="890.78" waitingTime="596.00" waitingCount="2" stopTime="0.00" timeLoss="608.40" rerouteNo="0" devices="tripinfo_Au8" vType="autonomous_car" speedFactor="0.94" vaporized=""/>
    <tripinfo id="EO30" depart="68.00" departLane="-e2_0" departPos="5.10" departSpeed="0.00" departDelay="2.00" arrival="716.00" arrivalLane="e4_0" arrivalPos="778.04" arrivalSpeed="15.49" duration="648.00" routeLength="1429.38" waitingTime="546.00" waitingCount="2" stopTime="0.00" timeLoss="560.16" rerouteNo="0" devices="tripinfo_EO30" vType="normal_car" speedFactor="1.18" vaporized=""/>
    <tripinfo id="NS12" depart="30.00" departLane="-e4_0" departPos="5.10" departSpeed="0.00" departDelay="0.00" arrival="721.00" arrivalLane="e2_0" arrivalPos="656.44" arrivalSpeed="13.57" duration="691.00" routeLength="1429.38" waitingTime="579.00" waitingCount="2" stopTime="0.00" timeLoss="592.86" rerouteNo="0" devices="tripinfo_NS12" vType="normal_car" speedFactor="1.05" vaporized=""/>
    <tripinfo id="Au7" depart="17.00" departLane="-e4_0" departPos="5.10" departSpeed="0.00" departDelay="0.00" arrival="744.00" arrivalLane="e2_0" arrivalPos="656.44" arrivalSpeed="12.20" duration="727.00" routeLength="1429.38" waitingTime="596.00" waitingCount="2" stopTime="0.00" timeLoss="611.19" rerouteNo="0" devices="tripinfo_Au7" vType="autonomous_car" speedFactor="0.89" vaporized=""/>
    <tripinfo id="EO25" depart="59.00" departLane="-e2_0" departPos="5.10" departSpeed="0.00" departDelay="0.00" arrival="770.00" arrivalLane="e4_0" arrivalPos="778.04" arrivalSpeed="11.05" duration="711.00" routeLength="1429.38" waitingTime="577.00" waitingCount="2" stopTime="0.00" timeLoss="593.11" rerouteNo="0" devices="tripinfo_EO25" vType="normal_car" speedFactor="0.87" vaporized=""/>
    <tripinfo id="NS13" depart="31.00" departLane="e1_0" departPos="5.10" departSpeed="0.00" departDelay="0.00" arrival="985.00" arrivalLane="e3_0" arrivalPos="464.62" arrivalSpeed="14.36" duration="954.00" routeLength="890.78" waitingTime="878.00" waitingCount="3" stopTime="0.00" timeLoss="897.02" rerouteNo="0" devices="tripinfo_NS13" vType="normal_car" speedFactor="1.12" vaporized=""/>
    <tripinfo id="SN27" depart="64.00" departLane="-e3_0" departPos="5.10" departSpeed="0.00" departDelay="0.00" arrival="985.00" arrivalLane="-e1_0" arrivalPos="431.26" arrivalSpeed="12.07" duration="921.00" routeLength="890.78" waitingTime="838.00" waitingCount="3" stopTime="0.00" timeLoss="853.86" rerouteNo="0" devices="tripinfo_SN27" vType="normal_car" speedFactor="0.95" vaporized=""/>
    <tripinfo id="NS11" depart="28.00" departLane="e1_0" departPos="5.10" departSpeed="0.00" departDelay="0.00" arrival="996.00" arrivalLane="e3_0" arrivalPos="464.62" arrivalSpeed="13.48" duration="968.00" routeLength="890.78" waitingTime="888.00" waitingCount="3" stopTime="0.00" timeLoss="905.47" rerouteNo="0" devices="tripinfo_NS11" vType="normal_car" speedFactor="1.03" vaporized=""/>
    <tripinfo id="SN24" depart="59.00" departLane="-e3_0" departPos="5.10" departSpeed="0.00" departDelay="0.00" arrival="997.00" arrivalLane="-e1_0" arrivalPos="431.26" arrivalSpeed="10.81" duration="938.00" routeLength="890.78" waitingTime="845.00" waitingCount="3" stopTime="0.00" timeLoss="860.43" rerouteNo="0" devices="tripinfo_SN24" vType="normal_car" speedFactor="0.83" vaporized=""/>
    <tripinfo id="EO31" depart="71.00" departLane="-e2_0" departPos="5.10" departSpeed="0.00" departDelay="4.00" arrival="1022.00" arrivalLane="e4_0" arrivalPos="778.04" arrivalSpeed="15.89" duration="951.00" routeLength="1429.38" waitingTime="843.00" waitingCount="3" stopTime="0.00" timeLoss="861.83" rerouteNo="0" devices="tripinfo_EO31" vType="normal_car" speedFactor="1.15" vaporized=""/>
    <tripinfo id="NS15" depart="33.00" departLane="-e4_0" departPos="5.10" departSpeed="0.00" departDelay="1.00" arrival="1033.00" arrivalLane="e2_0" arrivalPos="656.44" arrivalSpeed="12.39" duration="1000.00" routeLength="1429.38" waitingTime="870.00" waitingCount="3" stopTime="0.00" timeLoss="888.90" rerouteNo="0" devices="tripinfo_NS15" vType="normal_car" speedFactor="0.93" vaporized=""/>
    <tripinfo id="NS9" depart="22.00" departLane="-e4_0" departPos="5.10" departSpeed="0.00" departDelay="0.00" arrival="1052.00" arrivalLane="e2_0" arrivalPos="656.44" arrivalSpeed="11.29" duration="1030.00" routeLength="1429.38" waitingTime="891.00" waitingCount="3" stopTime="0.00" timeLoss="909.89" rerouteNo="0" devices="tripinfo_NS9" vType="normal_car" speedFactor="0.86" vaporized=""/>
    <tripinfo id="EO42" depart="85.00" departLane="-e2_0" departPos="5.10" departSpeed="0.00" departDelay="0.00" arrival="1061.00" arrivalLane="e4_0" arrivalPos="778.04" arrivalSpeed="14.36" duration="976.00" routeLength="1429.38" waitingTime="859.00" waitingCount="4" stopTime="0.00" timeLoss="881.50" rerouteNo="0" devices="tripinfo_EO42" vType="normal_car" speedFactor="1.09" vaporized=""/>
    <tripinfo id="SN37" depart="80.00" departLane="-e3_0" departPos="5.10" departSpeed="0.00" departDelay="0.00" arrival="1283.00" arrivalLane="-e1_0" arrivalPos="431.26" arrivalSpeed="16.13" duration="1203.00" routeLength="890.78" waitingTime="1125.00" waitingCount="4" stopTime="0.00" timeLoss="1148.10" rerouteNo="0" devices="tripinfo_SN37" vType="normal_car" speedFactor="1.18" vaporized=""/>
    <tripinfo id="NS19" depart="42.00" departLane="e1_0" departPos="5.10" departSpeed="0.00" departDelay="0.00" arrival="1289.00" arrivalLane="e3_0" arrivalPos="464.62" arrivalSpeed="15.58" duration="1247.00" routeLength="890.78" waitingTime="1169.00" waitingCount="4" stopTime="0.00" timeLoss="1191.86" rerouteNo="0" devices="tripinfo_NS19" vType="normal_car" speedFactor="1.16" vaporized=""/>
    <tripinfo id="SN34" depart="70.00" departLane="-e3_0" departPos="5.10" departSpeed="0.00" departDelay="0.00" arrival="1296.00" arrivalLane="-e1_0" arrivalPos="431.26" arrivalSpeed="13.81" duration="1226.00" routeLength="890.78" waitingTime="1137.00" waitingCount="4" stopTime="0.00" timeLoss="1161.41" rerouteNo="0" devices="tripinfo_SN34" vType="normal_car" speedFactor="0.99" vaporized=""/>
    <tripinfo id="NS16" depart="35.00" departLane="e1_0" departPos="5.10" departSpeed="0.00" departDelay="0.00" arrival="1307.00" arrivalLane="e3_0" arrivalPos="464.62" arrivalSpeed="11.96" duration="1272.00" routeLength="890.78" waitingTime="1176.00" waitingCount="4" stopTime="0.00" timeLoss="1199.19" rerouteNo="0" devices="tripinfo_NS16" vType="normal_car" speedFactor="0.88" vaporized=""/>
    <tripinfo id="NS20" depart="44.00" departLane="-e4_0" departPos="5.10" departSpeed="0.00" departDelay="0.00" arrival="1333.00" arrivalLane="e2_0" arrivalPos="656.44" arrivalSpeed="13.19" duration="1289.00" routeLength="1429.38" waitingTime="1164.00" waitingCount="4" stopTime="0.00" timeLoss="1187.52" rerouteNo="0" devices="tripinfo_NS20" vType="normal_car" speedFactor="1.02" vaporized=""/>
    <tripinfo id="EO29" depart="65.00" departLane="-e2_0" departPos="5.10" departSpeed="0.00" departDelay="0.00" arrival="1338.00" arrivalLane="e4_0" arrivalPos="778.04" arrivalSpeed="11.94" duration="1273.00" routeLength="1429.38" waitingTime="1143.00" waitingCount="3" stopTime="0.00" timeLoss="1162.87" rerouteNo="0" devices="tripinfo_EO29" vType="normal_car" speedFactor="0.93" vaporized=""/>
    <tripinfo id="NS28" depart="64.00" departLane="-e4_0" departPos="5.10" departSpeed="0.00" departDelay="0.00" arrival="1343.00" arrivalLane="e2_0" arrivalPos="656.44" arrivalSpeed="15.38" duration="1279.00" routeLength="1429.38" waitingTime="1157.00" waitingCount="5" stopTime="0.00" timeLoss="1188.03" rerouteNo="0" devices="tripinfo_NS28" vType="normal_car" speedFactor="1.13" vaporized=""/>
    <tripinfo id="EO40" depart="81.00" departLane="-e2_0" departPos="5.10" departSpeed="0.00" departDelay="0.00" arrival="1368.00" arrivalLane="e4_0" arrivalPos="778.04" arrivalSpeed="13.42" duration="1287.00" routeLength="1429.38" waitingTime="1159.00" waitingCount="5" stopTime="0.00" timeLoss="1187.07" rerouteNo="0" devices="tripinfo_EO40" vType="normal_car" speedFactor="1.03" vaporized=""/>
    <tripinfo id="SN43" depart="87.00" departLane="-e3_0" departPos="5.10" departSpeed="0.00" departDelay="0.00" arrival="1591.00" arrivalLane="-e1_0" arrivalPos="431.26" arrivalSpeed="14.27" duration="1504.00" routeLength="890.78" waitingTime="1416.00" waitingCount="5" stopTime="0.00" timeLoss="1441.75" rerouteNo="0" devices="tripinfo_SN43" vType="normal_car" speedFactor="1.04" vaporized=""/>
    <tripinfo id="NS33" depart="70.00" departLane="e1_0" departPos="5.10" departSpeed="0.00" departDelay="0.00" arrival="1594.00" arrivalLane="e3_0" arrivalPos="464.62" arrivalSpeed="15.93" duration="1524.00" routeLength="890.78" waitingTime="1441.00" waitingCount="5" stopTime="0.00" timeLoss="1469.13" rerouteNo="0" devices="tripinfo_NS33" vType="normal_car" speedFactor="1.17" vaporized=""/>
    <tripinfo id="SN39" depart="83.00" departLane="-e3_0" departPos="5.10" departSpeed="0.00" departDelay="2.00" arrival="1603.00" arrivalLane="-e1_0" arrivalPos="431.26" arrivalSpeed="11.90" duration="1520.00" routeLength="890.78" waitingTime="1420.00" waitingCount="5" stopTime="0.00" timeLoss="1449.08" rerouteNo="0" devices="tripinfo_SN39" vType="normal_car" speedFactor="0.90" vaporized=""/>
    <tripinfo id="NS23" depart="55.00" departLane="e1_0" departPos="5.10" departSpeed="0.00" departDelay="0.00" arrival="1611.00" arrivalLane="e3_0" arrivalPos="464.62" arrivalSpeed="11.62" duration="1556.00" routeLength="890.78" waitingTime="1455.00" waitingCount="5" stopTime="0.00" timeLoss="1483.67" rerouteNo="0" devices="tripinfo_NS23" vType="normal_car" speedFactor="0.89" vaporized=""/>
    <tripinfo id="NS38" depart="80.00" departLane="-e4_0" departPos="5.10" departSpeed="0.00" departDelay="0.00" arrival="1633.00" arrivalLane="e2_0" arrivalPos="656.44" arrivalSpeed="14.24" duration="1553.00" routeLength="1429.38" waitingTime="1425.00" waitingCount="6" stopTime="0.00" timeLoss="1459.54" rerouteNo="0" devices="tripinfo_NS38" vType="normal_car" speedFactor="1.10" vaporized=""/>
    <tripinfo id="EO32" depart="74.00" departLane="-e2_0" departPos="5.10" departSpeed="0.00" departDelay="5.00" arrival="1639.00" arrivalLane="e4_0" arrivalPos="778.04" arrivalSpeed="13.03" duration="1565.00" routeLength="1429.38" waitingTime="1439.00" waitingCount="4" stopTime="0.00" timeLoss="1462.60" rerouteNo="0" devices="tripinfo_EO32" vType="normal_car" speedFactor="1.01" vaporized=""/>
    <tripinfo id="NS44" depart="90.00" departLane="-e4_0" departPos="5.10" departSpeed="0.00" departDelay="0.00" arrival="1652.00" arrivalLane="e2_0" arrivalPos="656.44" arrivalSpeed="13.96" duration="1562.00" routeLength="1429.38" waitingTime="1420.00" waitingCount="7" stopTime="0.00" timeLoss="1462.85" rerouteNo="0" devices="tripinfo_NS44" vType="normal_car" speedFactor="1.04" vaporized=""/>
    <tripinfo id="EO54" depart="122.00" departLane="-e2_0" departPos="5.10" departSpeed="0.00" departDelay="0.00" arrival="1675.00" arrivalLane="e4_0" arrivalPos="778.04" arrivalSpeed="13.73" duration="1553.00" routeLength="1429.38" waitingTime="1415.00" waitingCount="6" stopTime="0.00" timeLoss="1449.96" rerouteNo="0" devices="tripinfo_EO54" vType="normal_car" speedFactor="1.00" vaporized=""/>
    <tripinfo id="SN46" depart="96.00" departLane="-e3_0" departPos="5.10" departSpeed="0.00" departDelay="2.00" arrival="1896.00" arrivalLane="-e1_0" arrivalPos="431.26" arrivalSpeed="13.27" duration="1800.00" routeLength="890.78" waitingTime="1701.00" waitingCount="6" stopTime="0.00" timeLoss="1735.57" rerouteNo="0" devices="tripinfo_SN46" vType="normal_car" speedFactor="1.00" vaporized=""/>
    <tripinfo id="SN45" depart="93.00" departLane="-e3_0" departPos="5.10" departSpeed="0.00" departDelay="0.00" arrival="1902.00" arrivalLane="-e1_0" arrivalPos="431.26" arrivalSpeed="14.84" duration="1809.00" routeLength="890.78" waitingTime="1715.00" waitingCount="6" stopTime="0.00" timeLoss="1749.84" rerouteNo="0" devices="tripinfo_SN45" vType="normal_car" speedFactor="1.09" vaporized=""/>
    <tripinfo id="NS48" depart="101.00" departLane="e1_0" departPos="5.10" departSpeed="0.00" departDelay="0.00" arrival="1909.00" arrivalLane="e3_0" arrivalPos="464.62" arrivalSpeed="11.32" duration="1808.00" routeLength="890.78" waitingTime="1703.00" waitingCount="6" stopTime="0.00" timeLoss="1734.95" rerouteNo="0" devices="tripinfo_NS48" vType="normal_car" speedFactor="0.88" vaporized=""/>
    <tripinfo id="NS26" depart="62.00" departLane="e1_0" departPos="5.10" departSpeed="0.00" departDelay="0.00" arrival="1915.00" arrivalLane="e3_0" arrivalPos="464.62" arrivalSpeed="11.53" duration="1853.00" routeLength="890.78" waitingTime="1748.00" waitingCount="6" stopTime="0.00" timeLoss="1782.81" rerouteNo="0" devices="tripinfo_NS26" vType="normal_car" speedFactor="0.92" vaporized=""/>
    <tripinfo id="NS18" depart="37.00" departLane="-e4_0" departPos="5.10" departSpeed="0.00" departDelay="0.00" arrival="1946.00" arrivalLane="e2_0" arrivalPos="656.44" arrivalSpeed="12.53" duration="1909.00" routeLength="1429.38" waitingTime="1777.00" waitingCount="4" stopTime="0.00" timeLoss="1799.53" rerouteNo="0" devices="tripinfo_NS18" vType="normal_car" speedFactor="0.94" vaporized=""/>
    <tripinfo id="EO36" depart="77.00" departLane="-e2_0" departPos="5.10" departSpeed="0.00" departDelay="2.00" arrival="1947.00" arrivalLane="e4_0" arrivalPos="778.04" arrivalSpeed="12.36" duration="1870.00" routeLength="1429.38" waitingTime="1732.00" waitingCount="5" stopTime="0.00" timeLoss="1763.81" rerouteNo="0" devices="tripinfo_EO36" vType="normal_car" speedFactor="0.97" vaporized=""/>
    <tripinfo id="NS53" depart="116.00" departLane="-e4_0" departPos="5.10" departSpeed="0.00" departDelay="0.00" arrival="1956.00" arrivalLane="e2_0" arrivalPos="656.44" arrivalSpeed="14.59" duration="1840.00" routeLength="1429.38" waitingTime="1693.00" waitingCount="8" stopTime="0.00" timeLoss="1745.64" rerouteNo="0" devices="tripinfo_NS53" vType="normal_car" speedFactor="1.10" vaporized=""/>
    <tripinfo id="EO61" depart="150.00" departLane="-e2_0" departPos="5.10" departSpeed="0.00" departDelay="0.00" arrival="1974.00" arrivalLane="e4_0" arrivalPos="778.04" arrivalSpeed="15.32" duration="1824.00" routeLength="1429.38" waitingTime="1690.00" waitingCount="7" stopTime="0.00" timeLoss="1732.28" rerouteNo="0" devices="tripinfo_EO61" vType="normal_car" speedFactor="1.12" vaporized=""/>
    <tripinfo id="SN59" depart="142.00" departLane="-e3_0" departPos="5.10" departSpeed="0.00" departDelay="0.00" arrival="2202.00" arrivalLane="-e1_0" arrivalPos="431.26" arrivalSpeed="12.31" duration="2060.00" routeLength="890.78" waitingTime="1953.00" waitingCount="7" stopTime="0.00" timeLoss="1993.91" rerouteNo="0" devices="tripinfo_SN59" vType="normal_car" speedFactor="0.97" vaporized=""/>
    <tripinfo id="NS60" depart="145.00" departLane="e1_0" departPos="5.10" departSpeed="0.00" departDelay="0.00" arrival="2204.00" arrivalLane="e3_0" arrivalPos="464.62" arrivalSpeed="13.82" duration="2059.00" routeLength="890.78" waitingTime="1958.00" waitingCount="7" stopTime="0.00" timeLoss="2000.07" rerouteNo="0" devices="tripinfo_NS60" vType="normal_car" speedFactor="1.08" vaporized=""/>
    <tripinfo id="NS52" depart="116.00" departLane="e1_0" departPos="5.10" departSpeed="0.00" departDelay="0.00" arrival="2215.00" arrivalLane="e3_0" arrivalPos="464.62" arrivalSpeed="13.98" duration="2099.00" routeLength="890.78" waitingTime="1997.00" waitingCount="7" stopTime="0.00" timeLoss="2036.34" rerouteNo="0" devices="tripinfo_NS52" vType="normal_car" speedFactor="1.02" vaporized=""/>
    <tripinfo id="SN49" depart="101.00" departLane="-e3_0" departPos="5.10" departSpeed="0.00" departDelay="0.00" arrival="2216.00" arrivalLane="-e1_0" arrivalPos="431.26" arrivalSpeed="10.66" duration="2115.00" routeLength="890.78" waitingTime="1996.00" waitingCount="7" stopTime="0.00" timeLoss="2039.51" rerouteNo="0" devices="tripinfo_SN49" vType="normal_car" speedFactor="0.85" vaporized=""/>
    <tripinfo id="NS57" depart="132.00" departLane="-e4_0" departPos="5.10" departSpeed="0.00" departDelay="0.00" arrival="2241.00" arrivalLane="e2_0" arrivalPos="656.44" arrivalSpeed="15.25" duration="2109.00" routeLength="1429.38" waitingTime="1959.00" waitingCount="9" stopTime="0.00" timeLoss="2018.99" rerouteNo="0" devices="tripinfo_NS57" vType="normal_car" speedFactor="1.14" vaporized=""/>
    <tripinfo id="EO69" depart="170.00" departLane="-e2_0" departPos="5.10" departSpeed="0.00" departDelay="0.00" arrival="2249.00" arrivalLane="e4_0" arrivalPos="778.04" arrivalSpeed="13.05" duration="2079.00" routeLength="1429.38" waitingTime="1932.00" waitingCount="8" stopTime="0.00" timeLoss="1978.13" rerouteNo="0" devices="tripinfo_EO69" vType="normal_car" speedFactor="1.02" vaporized=""/>
    <tripinfo id="NS22" depart="50.00" departLane="-e4_0" departPos="5.10" departSpeed="0.00" departDelay="0.00" arrival="2267.00" arrivalLane="e2_0" arrivalPos="656.44" arrivalSpeed="12.26" duration="2217.00" routeLength="1429.38" waitingTime="2083.00" waitingCount="5" stopTime="0.00" timeLoss="2111.38" rerouteNo="0" devices="tripinfo_NS22" vType="normal_car" speedFactor="0.98" vaporized=""/>
    <tripinfo id="EO80" depart="185.00" departLane="-e2_0" departPos="5.10" departSpeed="0.00" departDelay="0.00" arrival="2284.00" arrivalLane="e4_0" arrivalPos="778.04" arrivalSpeed="14.04" duration="2099.00" routeLength="1429.38" waitingTime="1949.00" waitingCount="9" stopTime="0.00" timeLoss="1999.09" rerouteNo="0" devices="tripinfo_EO80" vType="normal_car" speedFactor="1.03" vaporized=""/>
    <tripinfo id="SN64" depart="161.00" departLane="-e3_0" departPos="5.10" departSpeed="0.00" departDelay="2.00" arrival="2509.00" arrivalLane="-e1_0" arrivalPos="431.26" arrivalSpeed="12.03" duration="2348.00" routeLength="890.78" waitingTime="2230.00" waitingCount="8" stopTime="0.00" timeLoss="2279.55" rerouteNo="0" devices="tripinfo_SN64" vType="normal_car" speedFactor="0.94" vaporized=""/>
    <tripinfo id="NS72" depart="172.00" departLane="e1_0" departPos="5.10" departSpeed="0.00" departDelay="0.00" arrival="2514.00" arrivalLane="e3_0" arrivalPos="464.62" arrivalSpeed="12.33" duration="2342.00" routeLength="890.78" waitingTime="2221.00" waitingCount="8" stopTime="0.00" timeLoss="2274.06" rerouteNo="0" devices="tripinfo_NS72" vType="normal_car" speedFactor="0.94" vaporized=""/>
    <tripinfo id="SN63" depart="158.00" departLane="-e3_0" departPos="5.10" departSpeed="0.00" departDelay="0.00" arrival="2515.00" arrivalLane="-e1_0" arrivalPos="431.26" arrivalSpeed="12.54" duration="2357.00" routeLength="890.78" waitingTime="2244.00" waitingCount="8" stopTime="0.00" timeLoss="2292.06" rerouteNo="0" devices="tripinfo_SN63" vType="normal_car" speedFactor="0.99" vaporized=""/>
    <tripinfo id="NS68" depart="169.00" departLane="e1_0" departPos="5.10" departSpeed="0.00" departDelay="0.00" arrival="2520.00" arrivalLane="e3_0" arrivalPos="464.62" arrivalSpeed="14.36" duration="2351.00" routeLength="890.78" waitingTime="2244.00" waitingCount="8" stopTime="0.00" timeLoss="2289.03" rerouteNo="0" devices="tripinfo_NS68" vType="normal_car" speedFactor="1.04" vaporized=""/>
    <tripinfo id="EO51" depart="108.00" departLane="-e2_0" departPos="5.10" departSpeed="0.00" departDelay="0.00" arrival="2547.00" arrivalLane="e4_0" arrivalPos="778.04" arrivalSpeed="15.36" duration="2439.00" routeLength="1429.38" waitingTime="2312.00" waitingCount="6" stopTime="0.00" timeLoss="2351.10" rerouteNo="0" devices="tripinfo_EO51" vType="normal_car" speedFactor="1.17" vaporized=""/>
    <tripinfo id="NS58" depart="140.00" departLane="-e4_0" departPos="5.10" departSpeed="0.00" departDelay="0.00" arrival="2551.00" arrivalLane="e2_0" arrivalPos="656.44" arrivalSpeed="13.39" duration="2411.00" routeLength="1429.38" waitingTime="2248.00" waitingCount="10" stopTime="0.00" timeLoss="2310.73" rerouteNo="0" devices="tripinfo_NS58" vType="normal_car" speedFactor="1.02" vaporized=""/>
    <tripinfo id="NS70" depart="170.00" departLane="-e4_0" departPos="5.10" departSpeed="0.00" departDelay="0.00" arrival="2570.00" arrivalLane="e2_0" arrivalPos="656.44" arrivalSpeed="13.87" duration="2400.00" routeLength="1429.38" waitingTime="2224.00" waitingCount="11" stopTime="0.00" timeLoss="2299.82" rerouteNo="0" devices="tripinfo_NS70" vType="normal_car" speedFactor="1.02" vaporized=""/>
    <tripinfo id="EO84" depart="205.00" departLane="-e2_0" departPos="5.10" departSpeed="0.00" departDelay="0.00" arrival="2583.00" arrivalLane="e4_0" arrivalPos="778.04" arrivalSpeed="15.40" duration="2378.00" routeLength="1429.38" waitingTime="2227.00" waitingCount="10" stopTime="0.00" timeLoss="2288.28" rerouteNo="0" devices="tripinfo_EO84" vType="normal_car" speedFactor="1.15" vaporized=""/>
    <tripinfo id="SN73" depart="174.00" departLane="-e3_0" departPos="5.10" departSpeed="0.00" departDelay="2.00" arrival="2810.00" arrivalLane="-e1_0" arrivalPos="431.26" arrivalSpeed="13.43" duration="2636.00" routeLength="890.78" waitingTime="2517.00" waitingCount="9" stopTime="0.00" timeLoss="2575.33" rerouteNo="0" devices="tripinfo_SN73" vType="normal_car" speedFactor="1.06" vaporized=""/>
    <tripinfo id="NS76" depart="181.00" departLane="e1_0" departPos="5.10" departSpeed="0.00" departDelay="0.00" arrival="2816.00" arrivalLane="e3_0" arrivalPos="464.62" arrivalSpeed="13.47" duration="2635.00" routeLength="890.78" waitingTime="2515.00" waitingCount="9" stopTime="0.00" timeLoss="2572.95" rerouteNo="0" devices="tripinfo_NS76" vType="normal_car" speedFactor="1.03" vaporized=""/>
    <tripinfo id="SN66" depart="165.00" departLane="-e3_0" departPos="5.10" departSpeed="0.00" departDelay="0.00" arrival="2822.00" arrivalLane="-e1_0" arrivalPos="431.26" arrivalSpeed="12.36" duration="2657.00" routeLength="890.78" waitingTime="2531.00" waitingCount="9" stopTime="0.00" timeLoss="2586.40" rerouteNo="0" devices="tripinfo_SN66" vType="normal_car" speedFactor="0.91" vaporized=""/>
    <tripinfo id="NS74" depart="175.00" departLane="e1_0" departPos="5.10" departSpeed="0.00" departDelay="0.00" arrival="2827.00" arrivalLane="e3_0" arrivalPos="464.62" arrivalSpeed="13.00" duration="2652.00" routeLength="890.78" waitingTime="2532.00" waitingCount="9" stopTime="0.00" timeLoss="2584.85" rerouteNo="0" devices="tripinfo_NS74" vType="normal_car" speedFactor="0.96" vaporized=""/>
    <tripinfo id="NS79" depart="184.00" departLane="-e4_0" departPos="5.10" departSpeed="0.00" departDelay="0.00" arrival="2853.00" arrivalLane="e2_0" arrivalPos="656.44" arrivalSpeed="14.76" duration="2669.00" routeLength="1429.38" waitingTime="2488.00" waitingCount="12" stopTime="0.00" timeLoss="2574.51" rerouteNo="0" devices="tripinfo_NS79" vType="normal_car" speedFactor="1.09" vaporized=""/>
    <tripinfo id="EO87" depart="211.00" departLane="-e2_0" departPos="5.10" departSpeed="0.00" departDelay="4.00" arrival="2857.00" arrivalLane="e4_0" arrivalPos="778.04" arrivalSpeed="14.38" duration="2646.00" routeLength="1429.38" waitingTime="2479.00" waitingCount="11" stopTime="0.00" timeLoss="2547.23" rerouteNo="0" devices="tripinfo_EO87" vType="normal_car" speedFactor="1.04" vaporized=""/>
    <tripinfo id="NS35" depart="71.00" departLane="-e4_0" departPos="5.10" departSpeed="0.00" departDelay="0.00" arrival="2877.00" arrivalLane="e2_0" arrivalPos="656.44" arrivalSpeed="14.10" duration="2806.00" routeLength="1429.38" waitingTime="2665.00" waitingCount="6" stopTime="0.00" timeLoss="2704.69" rerouteNo="0" devices="tripinfo_NS35" vType="normal_car" speedFactor="1.02" vaporized=""/>
    <tripinfo id="EO93" depart="228.00" departLane="-e2_0" departPos="5.10" departSpeed="0.00" departDelay="0.00" arrival="2902.00" arrivalLane="e4_0" arrivalPos="778.04" arrivalSpeed="11.63" duration="2674.00" routeLength="1429.38" waitingTime="2484.00" waitingCount="12" stopTime="0.00" timeLoss="2562.23" rerouteNo="0" devices="tripinfo_EO93" vType="normal_car" speedFactor="0.92" vaporized=""/>
    <tripinfo id="SN71" depart="171.00" departLane="-e3_0" departPos="5.10" departSpeed="0.00" departDelay="0.00" arrival="3119.00" arrivalLane="-e1_0" arrivalPos="431.26" arrivalSpeed="13.44" duration="2948.00" routeLength="890.78" waitingTime="2811.00" waitingCount="10" stopTime="0.00" timeLoss="2881.61" rerouteNo="0" devices="tripinfo_SN71" vType="normal_car" speedFactor="0.97" vaporized=""/>
    <tripinfo id="NS89" depart="209.00" departLane="e1_0" departPos="5.10" departSpeed="0.00" departDelay="0.00" arrival="3121.00" arrivalLane="e3_0" arrivalPos="464.62" arrivalSpeed="13.84" duration="2912.00" routeLength="890.78" waitingTime="2784.00" waitingCount="10" stopTime="0.00" timeLoss="2849.62" rerouteNo="0" devices="tripinfo_NS89" vType="normal_car" speedFactor="1.02" vaporized=""/>