<?xml version="1.0" encoding="UTF-8"?>

<!-- generated on 12/04/20 01:12:03 by Eclipse SUMO GUI Version 1.7.0
<configuration xmlns:xsi="http://www.w3.org/2001/XMLSchema-instance" xsi:noNamespaceSchemaLocation="http://sumo.dlr.de/xsd/sumoConfiguration.xsd">

    <input>
        <net-file value="intersec_TL.net.xml"/>
        <route-files value="intersec_TL.rou.xml"/>
    </input>

    <output>
        <tripinfo-output value="tripinfo.xml"/>
    </output>

    <traci_server>
        <remote-port value="58900"/>
    </traci_server>

</configuration>
-->

<tripinfos xmlns:xsi="http://www.w3.org/2001/XMLSchema-instance" xsi:noNamespaceSchemaLocation="http://sumo.dlr.de/xsd/tripinfo_file.xsd">
    <tripinfo id="Au0" depart="2.00" departLane="-e3_0" departPos="5.10" departSpeed="0.00" departDelay="0.00" arrival="124.00" arrivalLane="-e1_0" arrivalPos="431.26" arrivalSpeed="13.61" duration="122.00" routeLength="911.58" waitingTime="48.00" waitingCount="1" stopTime="0.00" timeLoss="59.79" rerouteNo="0" devices="tripinfo_Au0" vType="autonomous_car" speedFactor="1.06" vaporized=""/>
    <tripinfo id="Au3" depart="5.00" departLane="e1_0" departPos="5.10" departSpeed="0.00" departDelay="0.00" arrival="126.00" arrivalLane="e3_0" arrivalPos="464.62" arrivalSpeed="14.94" duration="121.00" routeLength="911.58" waitingTime="48.00" waitingCount="1" stopTime="0.00" timeLoss="60.10" rerouteNo="0" devices="tripinfo_Au3" vType="autonomous_car" speedFactor="1.08" vaporized=""/>
    <tripinfo id="Au1" depart="5.00" departLane="-e3_0" departPos="5.10" departSpeed="0.00" departDelay="2.00" arrival="128.00" arrivalLane="-e1_1" arrivalPos="431.26" arrivalSpeed="12.36" duration="123.00" routeLength="911.58" waitingTime="42.00" waitingCount="1" stopTime="0.00" timeLoss="53.06" rerouteNo="0" devices="tripinfo_Au1" vType="autonomous_car" speedFactor="0.94" vaporized=""/>
    <tripinfo id="Au6" depart="14.00" departLane="e1_0" departPos="5.10" departSpeed="0.00" departDelay="0.00" arrival="128.00" arrivalLane="e3_0" arrivalPos="464.62" arrivalSpeed="13.94" duration="114.00" routeLength="911.58" waitingTime="38.00" waitingCount="1" stopTime="0.00" timeLoss="50.94" rerouteNo="0" devices="tripinfo_Au6" vType="autonomous_car" speedFactor="1.05" vaporized=""/>
    <tripinfo id="NS10" depart="25.00" departLane="e1_0" departPos="5.10" departSpeed="0.00" departDelay="0.00" arrival="129.00" arrivalLane="e3_1" arrivalPos="464.62" arrivalSpeed="13.91" duration="104.00" routeLength="911.58" waitingTime="30.00" waitingCount="1" stopTime="0.00" timeLoss="43.20" rerouteNo="0" devices="tripinfo_NS10" vType="normal_car" speedFactor="1.09" vaporized=""/>
    <tripinfo id="SN14" depart="31.00" departLane="-e3_0" departPos="5.10" departSpeed="0.00" departDelay="0.00" arrival="129.00" arrivalLane="-e1_0" arrivalPos="431.26" arrivalSpeed="12.47" duration="98.00" routeLength="911.58" waitingTime="18.00" waitingCount="1" stopTime="0.00" timeLoss="31.15" rerouteNo="0" devices="tripinfo_SN14" vType="normal_car" speedFactor="0.99" vaporized=""/>
    <tripinfo id="SN21" depart="45.00" departLane="-e3_0" departPos="5.10" departSpeed="0.00" departDelay="0.00" arrival="130.00" arrivalLane="-e1_1" arrivalPos="431.26" arrivalSpeed="13.42" duration="85.00" routeLength="911.58" waitingTime="4.00" waitingCount="1" stopTime="0.00" timeLoss="19.66" rerouteNo="0" devices="tripinfo_SN21" vType="normal_car" speedFactor="1.01" vaporized=""/>
    <tripinfo id="Au8" depart="18.00" departLane="e1_0" departPos="5.10" departSpeed="0.00" departDelay="0.00" arrival="134.00" arrivalLane="e3_0" arrivalPos="464.62" arrivalSpeed="12.57" duration="116.00" routeLength="911.58" waitingTime="33.00" waitingCount="1" stopTime="0.00" timeLoss="45.17" rerouteNo="0" devices="tripinfo_Au8" vType="autonomous_car" speedFactor="0.94" vaporized=""/>
    <tripinfo id="SN37" depart="80.00" departLane="-e3_0" departPos="5.10" departSpeed="0.00" departDelay="0.00" arrival="219.00" arrivalLane="-e1_1" arrivalPos="431.26" arrivalSpeed="15.98" duration="139.00" routeLength="911.58" waitingTime="70.00" waitingCount="1" stopTime="0.00" timeLoss="83.15" rerouteNo="0" devices="tripinfo_SN37" vType="normal_car" speedFactor="1.18" vaporized=""/>
    <tripinfo id="NS13" depart="31.00" departLane="e1_0" departPos="5.10" departSpeed="0.00" departDelay="0.00" arrival="220.00" arrivalLane="e3_0" arrivalPos="464.62" arrivalSpeed="14.77" duration="189.00" routeLength="911.58" waitingTime="113.00" waitingCount="2" stopTime="0.00" timeLoss="130.09" rerouteNo="0" devices="tripinfo_NS13" vType="normal_car" speedFactor="1.12" vaporized=""/>
    <tripinfo id="NS19" depart="42.00" departLane="e1_0" departPos="5.10" departSpeed="0.00" departDelay="0.00" arrival="221.00" arrivalLane="e3_1" arrivalPos="464.62" arrivalSpeed="16.00" duration="179.00" routeLength="911.58" waitingTime="102.00" waitingCount="2" stopTime="0.00" timeLoss="121.94" rerouteNo="0" devices="tripinfo_NS19" vType="normal_car" speedFactor="1.16" vaporized=""/>
    <tripinfo id="SN27" depart="64.00" departLane="-e3_0" departPos="5.10" departSpeed="0.00" departDelay="0.00" arrival="223.00" arrivalLane="-e1_0" arrivalPos="431.26" arrivalSpeed="12.54" duration="159.00" routeLength="911.58" waitingTime="78.00" waitingCount="1" stopTime="0.00" timeLoss="89.38" rerouteNo="0" devices="tripinfo_SN27" vType="normal_car" speedFactor="0.95" vaporized=""/>
    <tripinfo id="NS11" depart="28.00" departLane="e1_0" departPos="5.10" departSpeed="0.00" departDelay="0.00" arrival="224.00" arrivalLane="e3_0" arrivalPos="464.62" arrivalSpeed="13.11" duration="196.00" routeLength="911.58" waitingTime="113.00" waitingCount="2" stopTime="0.00" timeLoss="131.23" rerouteNo="0" devices="tripinfo_NS11" vType="normal_car" speedFactor="1.03" vaporized=""/>
    <tripinfo id="SN34" depart="70.00" departLane="-e3_0" departPos="5.10" departSpeed="0.00" departDelay="0.00" arrival="225.00" arrivalLane="-e1_1" arrivalPos="431.26" arrivalSpeed="13.14" duration="155.00" routeLength="911.58" waitingTime="76.00" waitingCount="1" stopTime="0.00" timeLoss="88.77" rerouteNo="0" devices="tripinfo_SN34" vType="normal_car" speedFactor="0.99" vaporized=""/>
    <tripinfo id="SN24" depart="59.00" departLane="-e3_0" departPos="5.10" departSpeed="0.00" departDelay="0.00" arrival="229.00" arrivalLane="-e1_0" arrivalPos="431.26" arrivalSpeed="10.60" duration="170.00" routeLength="911.58" waitingTime="78.00" waitingCount="1" stopTime="0.00" timeLoss="89.77" rerouteNo="0" devices="tripinfo_SN24" vType="normal_car" speedFactor="0.83" vaporized=""/>
    <tripinfo id="NS16" depart="35.00" departLane="e1_0" departPos="5.10" departSpeed="0.00" departDelay="0.00" arrival="232.00" arrivalLane="e3_0" arrivalPos="464.62" arrivalSpeed="11.73" duration="197.00" routeLength="911.58" waitingTime="102.00" waitingCount="2" stopTime="0.00" timeLoss="121.60" rerouteNo="0" devices="tripinfo_NS16" vType="normal_car" speedFactor="0.88" vaporized=""/>
    <tripinfo id="NS33" depart="70.00" departLane="e1_0" departPos="5.10" departSpeed="0.00" departDelay="0.00" arrival="315.00" arrivalLane="e3_0" arrivalPos="464.62" arrivalSpeed="16.05" duration="245.00" routeLength="911.58" waitingTime="173.00" waitingCount="2" stopTime="0.00" timeLoss="188.17" rerouteNo="0" devices="tripinfo_NS33" vType="normal_car" speedFactor="1.17" vaporized=""/>
    <tripinfo id="SN43" depart="87.00" departLane="-e3_0" departPos="5.10" departSpeed="0.00" departDelay="0.00" arrival="316.00" arrivalLane="-e1_0" arrivalPos="431.26" arrivalSpeed="13.26" duration="229.00" routeLength="911.58" waitingTime="148.00" waitingCount="2" stopTime="0.00" timeLoss="164.91" rerouteNo="0" devices="tripinfo_SN43" vType="normal_car" speedFactor="1.04" vaporized=""/>
    <tripinfo id="SN39" depart="83.00" departLane="-e3_0" departPos="5.10" departSpeed="0.00" departDelay="2.00" arrival="320.00" arrivalLane="-e1_0" arrivalPos="431.26" arrivalSpeed="11.82" duration="237.00" routeLength="911.58" waitingTime="148.00" waitingCount="2" stopTime="0.00" timeLoss="163.89" rerouteNo="0" devices="tripinfo_SN39" vType="normal_car" speedFactor="0.90" vaporized=""/>
    <tripinfo id="SN45" depart="93.00" departLane="-e3_0" departPos="5.10" departSpeed="0.00" departDelay="0.00" arrival="323.00" arrivalLane="-e1_0" arrivalPos="431.26" arrivalSpeed="14.30" duration="230.00" routeLength="911.58" waitingTime="146.00" waitingCount="3" stopTime="0.00" timeLoss="169.34" rerouteNo="0" devices="tripinfo_SN45" vType="normal_car" speedFactor="1.09" vaporized=""/>
    <tripinfo id="NS23" depart="55.00" departLane="e1_0" departPos="5.10" departSpeed="0.00" departDelay="0.00" arrival="324.00" arrivalLane="e3_0" arrivalPos="464.62" arrivalSpeed="11.09" duration="269.00" routeLength="911.58" waitingTime="172.00" waitingCount="2" stopTime="0.00" timeLoss="194.45" rerouteNo="0" devices="tripinfo_NS23" vType="normal_car" speedFactor="0.89" vaporized=""/>
    <tripinfo id="SN46" depart="95.00" departLane="-e3_0" departPos="5.10" departSpeed="0.00" departDelay="1.00" arrival="325.00" arrivalLane="-e1_0" arrivalPos="431.26" arrivalSpeed="12.95" duration="230.00" routeLength="911.58" waitingTime="142.00" waitingCount="3" stopTime="0.00" timeLoss="163.97" rerouteNo="0" devices="tripinfo_SN46" vType="normal_car" speedFactor="1.00" vaporized=""/>
    <tripinfo id="NS26" depart="62.00" departLane="e1_0" departPos="5.10" departSpeed="0.00" departDelay="0.00" arrival="331.00" arrivalLane="e3_0" arrivalPos="464.62" arrivalSpeed="12.45" duration="269.00" routeLength="911.58" waitingTime="174.00" waitingCount="3" stopTime="0.00" timeLoss="197.19" rerouteNo="0" devices="tripinfo_NS26" vType="normal_car" speedFactor="0.92" vaporized=""/>
    <tripinfo id="NS48" depart="101.00" departLane="e1_0" departPos="5.10" departSpeed="0.00" departDelay="0.00" arrival="332.00" arrivalLane="e3_0" arrivalPos="464.62" arrivalSpeed="10.91" duration="231.00" routeLength="911.58" waitingTime="136.00" waitingCount="3" stopTime="0.00" timeLoss="155.81" rerouteNo="0" devices="tripinfo_NS48" vType="normal_car" speedFactor="0.88" vaporized=""/>
    <tripinfo id="Au2" depart="4.00" departLane="-e4_0" departPos="5.10" departSpeed="0.00" departDelay="0.00" arrival="338.00" arrivalLane="e2_0" arrivalPos="656.44" arrivalSpeed="12.79" duration="334.00" routeLength="1450.20" waitingTime="211.00" waitingCount="2" stopTime="0.00" timeLoss="229.82" rerouteNo="0" devices="tripinfo_Au2" vType="autonomous_car" speedFactor="1.01" vaporized=""/>
    <tripinfo id="Au4" depart="6.00" departLane="-e2_0" departPos="5.10" departSpeed="0.00" departDelay="0.00" arrival="345.00" arrivalLane="e4_0" arrivalPos="778.04" arrivalSpeed="14.02" duration="339.00" routeLength="1450.19" waitingTime="220.00" waitingCount="2" stopTime="0.00" timeLoss="237.31" rerouteNo="0" devices="tripinfo_Au4" vType="autonomous_car" speedFactor="1.03" vaporized=""/>
    <tripinfo id="Au5" depart="8.00" departLane="-e4_0" departPos="5.10" departSpeed="0.00" departDelay="0.00" arrival="349.00" arrivalLane="e2_0" arrivalPos="656.44" arrivalSpeed="10.77" duration="341.00" routeLength="1450.20" waitingTime="197.00" waitingCount="2" stopTime="0.00" timeLoss="214.71" rerouteNo="0" devices="tripinfo_Au5" vType="autonomous_car" speedFactor="0.83" vaporized=""/>
    <tripinfo id="NS60" depart="145.00" departLane="e1_0" departPos="5.10" departSpeed="0.00" departDelay="0.00" arrival="411.00" arrivalLane="e3_0" arrivalPos="464.62" arrivalSpeed="14.10" duration="266.00" routeLength="911.58" waitingTime="178.00" waitingCount="4" stopTime="0.00" timeLoss="205.18" rerouteNo="0" devices="tripinfo_NS60" vType="normal_car" speedFactor="1.08" vaporized=""/>
    <tripinfo id="SN59" depart="142.00" departLane="-e3_0" departPos="5.10" departSpeed="0.00" departDelay="0.00" arrival="412.00" arrivalLane="-e1_0" arrivalPos="431.26" arrivalSpeed="13.06" duration="270.00" routeLength="911.58" waitingTime="177.00" waitingCount="4" stopTime="0.00" timeLoss="202.19" rerouteNo="0" devices="tripinfo_SN59" vType="normal_car" speedFactor="0.97" vaporized=""/>
    <tripinfo id="NS52" depart="116.00" departLane="e1_0" departPos="5.10" departSpeed="0.00" departDelay="0.00" arrival="414.00" arrivalLane="e3_0" arrivalPos="464.62" arrivalSpeed="13.58" duration="298.00" routeLength="911.58" waitingTime="205.00" waitingCount="4" stopTime="0.00" timeLoss="232.69" rerouteNo="0" devices="tripinfo_NS52" vType="normal_car" speedFactor="1.02" vaporized=""/>
    <tripinfo id="SN49" depart="101.00" departLane="-e3_0" departPos="5.10" departSpeed="0.00" departDelay="0.00" arrival="417.00" arrivalLane="-e1_0" arrivalPos="431.26" arrivalSpeed="10.56" duration="316.00" routeLength="911.58" waitingTime="213.00" waitingCount="4" stopTime="0.00" timeLoss="238.63" rerouteNo="0" devices="tripinfo_SN49" vType="normal_car" speedFactor="0.85" vaporized=""/>
    <tripinfo id="SN63" depart="158.00" departLane="-e3_0" departPos="5.10" departSpeed="0.00" departDelay="0.00" arrival="419.00" arrivalLane="-e1_0" arrivalPos="431.26" arrivalSpeed="12.72" duration="261.00" routeLength="911.58" waitingTime="168.00" waitingCount="3" stopTime="0.00" timeLoss="194.03" rerouteNo="0" devices="tripinfo_SN63" vType="normal_car" speedFactor="0.99" vaporized=""/>
    <tripinfo id="SN64" depart="161.00" departLane="-e3_0" departPos="5.10" departSpeed="0.00" departDelay="2.00" arrival="419.00" arrivalLane="-e1_1" arrivalPos="431.26" arrivalSpeed="12.37" duration="258.00" routeLength="911.58" waitingTime="161.00" waitingCount="3" stopTime="0.00" timeLoss="187.81" rerouteNo="0" devices="tripinfo_SN64" vType="normal_car" speedFactor="0.94" vaporized=""/>
    <tripinfo id="NS68" depart="169.00" departLane="e1_0" departPos="5.10" departSpeed="0.00" departDelay="0.00" arrival="420.00" arrivalLane="e3_0" arrivalPos="464.62" arrivalSpeed="14.30" duration="251.00" routeLength="911.58" waitingTime="161.00" waitingCount="4" stopTime="0.00" timeLoss="187.89" rerouteNo="0" devices="tripinfo_NS68" vType="normal_car" speedFactor="1.04" vaporized=""/>
    <tripinfo id="NS72" depart="172.00" departLane="e1_0" departPos="5.10" departSpeed="0.00" departDelay="0.00" arrival="424.00" arrivalLane="e3_0" arrivalPos="464.62" arrivalSpeed="12.85" duration="252.00" routeLength="911.58" waitingTime="157.00" waitingCount="4" stopTime="0.00" timeLoss="181.24" rerouteNo="0" devices="tripinfo_NS72" vType="normal_car" speedFactor="0.94" vaporized=""/>
    <tripinfo id="EO17" depart="37.00" departLane="-e2_0" departPos="5.10" departSpeed="0.00" departDelay="0.00" arrival="444.00" arrivalLane="e4_0" arrivalPos="778.04" arrivalSpeed="12.62" duration="407.00" routeLength="1450.19" waitingTime="281.00" waitingCount="2" stopTime="0.00" timeLoss="296.09" rerouteNo="0" devices="tripinfo_EO17" vType="normal_car" speedFactor="0.94" vaporized=""/>
    <tripinfo id="SN73" depart="174.00" departLane="-e3_0" departPos="5.10" departSpeed="0.00" departDelay="2.00" arrival="504.00" arrivalLane="-e1_0" arrivalPos="431.26" arrivalSpeed="14.52" duration="330.00" routeLength="911.58" waitingTime="241.00" waitingCount="4" stopTime="0.00" timeLoss="267.80" rerouteNo="0" devices="tripinfo_SN73" vType="normal_car" speedFactor="1.06" vaporized=""/>
    <tripinfo id="NS76" depart="181.00" departLane="e1_0" departPos="5.10" departSpeed="0.00" departDelay="0.00" arrival="508.00" arrivalLane="e3_0" arrivalPos="464.62" arrivalSpeed="13.53" duration="327.00" routeLength="911.58" waitingTime="235.00" waitingCount="4" stopTime="0.00" timeLoss="262.92" rerouteNo="0" devices="tripinfo_NS76" vType="normal_car" speedFactor="1.03" vaporized=""/>
    <tripinfo id="SN71" depart="171.00" departLane="-e3_0" departPos="5.10" departSpeed="0.00" departDelay="0.00" arrival="509.00" arrivalLane="-e1_1" arrivalPos="431.26" arrivalSpeed="13.25" duration="338.00" routeLength="911.58" waitingTime="238.00" waitingCount="4" stopTime="0.00" timeLoss="270.09" rerouteNo="0" devices="tripinfo_SN71" vType="normal_car" speedFactor="0.97" vaporized=""/>
    <tripinfo id="SN66" depart="165.00" departLane="-e3_0" departPos="5.10" departSpeed="0.00" departDelay="0.00" arrival="510.00" arrivalLane="-e1_0" arrivalPos="431.26" arrivalSpeed="11.86" duration="345.00" routeLength="911.58" waitingTime="246.00" waitingCount="4" stopTime="0.00" timeLoss="272.41" rerouteNo="0" devices="tripinfo_SN66" vType="normal_car" speedFactor="0.91" vaporized=""/>
    <tripinfo id="NS89" depart="209.00" departLane="e1_0" departPos="5.10" departSpeed="0.00" departDelay="0.00" arrival="510.00" arrivalLane="e3_1" arrivalPos="464.62" arrivalSpeed="13.23" duration="301.00" routeLength="911.58" waitingTime="203.00" waitingCount="3" stopTime="0.00" timeLoss="236.58" rerouteNo="0" devices="tripinfo_NS89" vType="normal_car" speedFactor="1.02" vaporized=""/>
    <tripinfo id="NS74" depart="175.00" departLane="e1_0" departPos="5.10" departSpeed="0.00" departDelay="0.00" arrival="511.00" arrivalLane="e3_0" arrivalPos="464.62" arrivalSpeed="12.12" duration="336.00" routeLength="911.58" waitingTime="233.00" waitingCount="4" stopTime="0.00" timeLoss="266.99" rerouteNo="0" devices="tripinfo_NS74" vType="normal_car" speedFactor="0.96" vaporized=""/>
    <tripinfo id="SN67" depart="168.00" departLane="-e3_0" departPos="5.10" departSpeed="0.00" departDelay="0.00" arrival="512.00" arrivalLane="-e1_0" arrivalPos="431.26" arrivalSpeed="12.20" duration="344.00" routeLength="911.58" waitingTime="242.00" waitingCount="4" stopTime="0.00" timeLoss="272.00" rerouteNo="0" devices="tripinfo_SN67" vType="normal_car" speedFactor="0.91" vaporized=""/>
    <tripinfo id="NS82" depart="194.00" departLane="e1_0" departPos="5.10" departSpeed="0.00" departDelay="0.00" arrival="512.00" arrivalLane="e3_1" arrivalPos="464.62" arrivalSpeed="12.86" duration="318.00" routeLength="911.58" waitingTime="218.00" waitingCount="3" stopTime="0.00" timeLoss="253.16" rerouteNo="0" devices="tripinfo_NS82" vType="normal_car" speedFactor="1.02" vaporized=""/>
    <tripinfo id="SN78" depart="184.00" departLane="-e3_0" departPos="5.10" departSpeed="0.00" departDelay="0.00" arrival="601.00" arrivalLane="-e1_0" arrivalPos="431.26" arrivalSpeed="13.20" duration="417.00" routeLength="911.58" waitingTime="315.00" waitingCount="5" stopTime="0.00" timeLoss="351.70" rerouteNo="0" devices="tripinfo_SN78" vType="normal_car" speedFactor="1.01" vaporized=""/>
    <tripinfo id="NS94" depart="233.00" departLane="e1_0" departPos="5.10" departSpeed="0.00" departDelay="0.00" arrival="602.00" arrivalLane="e3_0" arrivalPos="464.62" arrivalSpeed="15.02" duration="369.00" routeLength="911.58" waitingTime="267.00" waitingCount="4" stopTime="0.00" timeLoss="307.95" rerouteNo="0" devices="tripinfo_NS94" vType="normal_car" speedFactor="1.09" vaporized=""/>
    <tripinfo id="NS95" depart="236.00" departLane="e1_0" departPos="5.10" departSpeed="0.00" departDelay="2.00" arrival="602.00" arrivalLane="e3_1" arrivalPos="464.62" arrivalSpeed="14.43" duration="366.00" routeLength="911.58" waitingTime="262.00" waitingCount="4" stopTime="0.00" timeLoss="303.56" rerouteNo="0" devices="tripinfo_NS95" vType="normal_car" speedFactor="1.06" vaporized=""/>
    <tripinfo id="SN91" depart="217.00" departLane="-e3_0" departPos="5.10" departSpeed="0.00" departDelay="0.00" arrival="606.00" arrivalLane="-e1_0" arrivalPos="431.26" arrivalSpeed="12.14" duration="389.00" routeLength="911.58" waitingTime="280.00" waitingCount="5" stopTime="0.00" timeLoss="314.55" rerouteNo="0" devices="tripinfo_SN91" vType="normal_car" speedFactor="0.89" vaporized=""/>
    <tripinfo id="SN107" depart="265.00" departLane="-e3_0" departPos="5.10" departSpeed="0.00" departDelay="0.00" arrival="609.00" arrivalLane="-e1_0" arrivalPos="431.26" arrivalSpeed="13.28" duration="344.00" routeLength="911.58" waitingTime="248.00" waitingCount="4" stopTime="0.00" timeLoss="280.41" rerouteNo="0" devices="tripinfo_SN107" vType="normal_car" speedFactor="1.03" vaporized=""/>
    <tripinfo id="NS105" depart="264.00" departLane="e1_0" departPos="5.10" departSpeed="0.00" departDelay="2.00" arrival="611.00" arrivalLane="e3_0" arrivalPos="464.62" arrivalSpeed="14.32" duration="347.00" routeLength="911.58" waitingTime="248.00" waitingCount="4" stopTime="0.00" timeLoss="285.03" rerouteNo="0" devices="tripinfo_NS105" vType="normal_car" speedFactor="1.07" vaporized=""/>
    <tripinfo id="NS103" depart="261.00" departLane="e1_0" departPos="5.10" departSpeed="0.00" departDelay="0.00" arrival="615.00" arrivalLane="e3_0" arrivalPos="464.62" arrivalSpeed="12.45" duration="354.00" routeLength="911.58" waitingTime="247.00" waitingCount="4" stopTime="0.00" timeLoss="284.73" rerouteNo="0" devices="tripinfo_NS103" vType="normal_car" speedFactor="0.95" vaporized=""/>
    <tripinfo id="SN104" depart="261.00" departLane="-e3_0" departPos="5.10" departSpeed="0.00" departDelay="0.00" arrival="615.00" arrivalLane="-e1_0" arrivalPos="431.26" arrivalSpeed="11.62" duration="354.00" routeLength="911.58" waitingTime="247.00" waitingCount="4" stopTime="0.00" timeLoss="280.04" rerouteNo="0" devices="tripinfo_SN104" vType="normal_car" speedFactor="0.89" vaporized=""/>
    <tripinfo id="NS12" depart="30.00" departLane="-e4_0" departPos="5.10" departSpeed="0.00" departDelay="0.00" arrival="621.00" arrivalLane="e2_0" arrivalPos="656.44" arrivalSpeed="14.37" duration="591.00" routeLength="1450.20" waitingTime="465.00" waitingCount="3" stopTime="0.00" timeLoss="490.84" rerouteNo="0" devices="tripinfo_NS12" vType="normal_car" speedFactor="1.05" vaporized=""/>
    <tripinfo id="Au7" depart="17.00" departLane="-e4_0" departPos="5.10" departSpeed="0.00" departDelay="0.00" arrival="630.00" arrivalLane="e2_0" arrivalPos="656.44" arrivalSpeed="12.20" duration="613.00" routeLength="1450.20" waitingTime="466.00" waitingCount="4" stopTime="0.00" timeLoss="494.21" rerouteNo="0" devices="tripinfo_Au7" vType="autonomous_car" speedFactor="0.89" vaporized=""/>
    <tripinfo id="EO25" depart="59.00" departLane="-e2_0" departPos="5.10" departSpeed="0.00" departDelay="0.00" arrival="641.00" arrivalLane="e4_0" arrivalPos="778.04" arrivalSpeed="11.34" duration="582.00" routeLength="1450.19" waitingTime="437.00" waitingCount="3" stopTime="0.00" timeLoss="462.14" rerouteNo="0" devices="tripinfo_EO25" vType="normal_car" speedFactor="0.87" vaporized=""/>
</tripinfos>
