<?xml version="1.0" encoding="UTF-8"?>

<!-- generated on 02/07/21 20:13:03 by Eclipse SUMO GUI Version 1.7.0
<configuration xmlns:xsi="http://www.w3.org/2001/XMLSchema-instance" xsi:noNamespaceSchemaLocation="http://sumo.dlr.de/xsd/sumoConfiguration.xsd">

    <input>
        <net-file value="case0.net.xml"/>
        <route-files value="case0.rou.xml"/>
        <additional-files value="case0.add.xml"/>
    </input>

    <output>
        <emission-output value="emissionOutput.xml"/>
        <tripinfo-output value="tripinfo.xml"/>
    </output>

    <processing>
        <ignore-route-errors value="true"/>
    </processing>

    <traci_server>
        <remote-port value="54818"/>
    </traci_server>

</configuration>
-->

<emission-export xmlns:xsi="http://www.w3.org/2001/XMLSchema-instance" xsi:noNamespaceSchemaLocation="http://sumo.dlr.de/xsd/emission_file.xsd">
    <timestep time="0.00"/>
    <timestep time="1.00"/>
    <timestep time="2.00"/>
    <timestep time="3.00"/>
    <timestep time="4.00"/>
    <timestep time="5.00"/>
    <timestep time="6.00"/>
    <timestep time="7.00"/>
    <timestep time="8.00"/>
    <timestep time="9.00"/>
    <timestep time="10.00">
        <vehicle id="veh1" eclass="Zero/default" CO2="0.00" CO="0.00" HC="0.00" NOx="0.00" PMx="0.00" fuel="0.00" electricity="0.00" noise="0.00" route="!veh1!var#1" type="eVehicle" waiting="0.00" lane="-A_0" pos="5.10" speed="0.00" angle="90.00" x="-1744.90" y="-5251.60"/>
    </timestep>
    <timestep time="11.00">
        <vehicle id="veh1" eclass="Zero/default" CO2="0.00" CO="0.00" HC="0.00" NOx="0.00" PMx="0.00" fuel="0.00" electricity="0.00" noise="0.00" route="!veh1!var#1" type="eVehicle" waiting="0.00" lane="-A_0" pos="6.64" speed="1.54" angle="90.00" x="-1743.36" y="-5251.60"/>
    </timestep>
    <timestep time="12.00">
        <vehicle id="veh1" eclass="Zero/default" CO2="0.00" CO="0.00" HC="0.00" NOx="0.00" PMx="0.00" fuel="0.00" electricity="0.00" noise="0.00" route="!veh1!var#1" type="eVehicle" waiting="0.00" lane="-A_0" pos="9.59" speed="2.95" angle="90.00" x="-1740.41" y="-5251.60"/>
    </timestep>
    <timestep time="13.00">
        <vehicle id="veh1" eclass="Zero/default" CO2="0.00" CO="0.00" HC="0.00" NOx="0.00" PMx="0.00" fuel="0.00" electricity="0.00" noise="0.00" route="!veh1!var#1" type="eVehicle" waiting="0.00" lane="-A_0" pos="14.57" speed="4.99" angle="90.00" x="-1735.43" y="-5251.60"/>
    </timestep>
    <timestep time="14.00">
        <vehicle id="veh1" eclass="Zero/default" CO2="0.00" CO="0.00" HC="0.00" NOx="0.00" PMx="0.00" fuel="0.00" electricity="0.00" noise="0.00" route="!veh1!var#1" type="eVehicle" waiting="0.00" lane="-A_0" pos="21.13" speed="6.55" angle="90.00" x="-1728.87" y="-5251.60"/>
    </timestep>
    <timestep time="15.00">
        <vehicle id="veh1" eclass="Zero/default" CO2="0.00" CO="0.00" HC="0.00" NOx="0.00" PMx="0.00" fuel="0.00" electricity="0.00" noise="0.00" route="!veh1!var#1" type="eVehicle" waiting="0.00" lane="-A_0" pos="29.40" speed="8.28" angle="90.00" x="-1720.60" y="-5251.60"/>
    </timestep>
    <timestep time="16.00">
        <vehicle id="veh1" eclass="Zero/default" CO2="0.00" CO="0.00" HC="0.00" NOx="0.00" PMx="0.00" fuel="0.00" electricity="0.00" noise="0.00" route="!veh1!var#1" type="eVehicle" waiting="0.00" lane="-A_0" pos="39.42" speed="10.02" angle="90.00" x="-1710.58" y="-5251.60"/>
    </timestep>
    <timestep time="17.00">
        <vehicle id="veh1" eclass="Zero/default" CO2="0.00" CO="0.00" HC="0.00" NOx="0.00" PMx="0.00" fuel="0.00" electricity="0.00" noise="0.00" route="!veh1!var#1" type="eVehicle" waiting="0.00" lane="-A_0" pos="51.74" speed="12.32" angle="90.00" x="-1698.26" y="-5251.60"/>
    </timestep>
    <timestep time="18.00">
        <vehicle id="veh1" eclass="Zero/default" CO2="0.00" CO="0.00" HC="0.00" NOx="0.00" PMx="0.00" fuel="0.00" electricity="0.00" noise="0.00" route="!veh1!var#1" type="eVehicle" waiting="0.00" lane="-A_0" pos="66.12" speed="14.38" angle="90.00" x="-1683.88" y="-5251.60"/>
    </timestep>
    <timestep time="19.00">
        <vehicle id="veh1" eclass="Zero/default" CO2="0.00" CO="0.00" HC="0.00" NOx="0.00" PMx="0.00" fuel="0.00" electricity="0.00" noise="0.00" route="!veh1!var#1" type="eVehicle" waiting="0.00" lane="-A_0" pos="80.37" speed="14.26" angle="90.00" x="-1669.63" y="-5251.60"/>
    </timestep>
    <timestep time="20.00">
        <vehicle id="veh1" eclass="Zero/default" CO2="0.00" CO="0.00" HC="0.00" NOx="0.00" PMx="0.00" fuel="0.00" electricity="0.00" noise="0.00" route="!veh1!var#1" type="eVehicle" waiting="0.00" lane="-A_0" pos="94.42" speed="14.05" angle="90.00" x="-1655.58" y="-5251.60"/>
    </timestep>
    <timestep time="21.00">
        <vehicle id="veh1" eclass="Zero/default" CO2="0.00" CO="0.00" HC="0.00" NOx="0.00" PMx="0.00" fuel="0.00" electricity="0.00" noise="0.00" route="!veh1!var#1" type="eVehicle" waiting="0.00" lane="-A_0" pos="108.86" speed="14.43" angle="90.00" x="-1641.14" y="-5251.60"/>
    </timestep>
    <timestep time="22.00">
        <vehicle id="veh1" eclass="Zero/default" CO2="0.00" CO="0.00" HC="0.00" NOx="0.00" PMx="0.00" fuel="0.00" electricity="0.00" noise="0.00" route="!veh1!var#1" type="eVehicle" waiting="0.00" lane="-A_0" pos="123.42" speed="14.57" angle="90.00" x="-1626.58" y="-5251.60"/>
    </timestep>
    <timestep time="23.00">
        <vehicle id="veh1" eclass="Zero/default" CO2="0.00" CO="0.00" HC="0.00" NOx="0.00" PMx="0.00" fuel="0.00" electricity="0.00" noise="0.00" route="!veh1!var#1" type="eVehicle" waiting="0.00" lane="-A_0" pos="138.01" speed="14.59" angle="90.00" x="-1611.99" y="-5251.60"/>
    </timestep>
    <timestep time="24.00">
        <vehicle id="veh1" eclass="Zero/default" CO2="0.00" CO="0.00" HC="0.00" NOx="0.00" PMx="0.00" fuel="0.00" electricity="0.00" noise="0.00" route="!veh1!var#1" type="eVehicle" waiting="0.00" lane="-A_0" pos="152.38" speed="14.37" angle="90.00" x="-1597.62" y="-5251.60"/>
    </timestep>
    <timestep time="25.00">
        <vehicle id="veh1" eclass="Zero/default" CO2="0.00" CO="0.00" HC="0.00" NOx="0.00" PMx="0.00" fuel="0.00" electricity="0.00" noise="0.00" route="!veh1!var#1" type="eVehicle" waiting="0.00" lane="-A_0" pos="166.30" speed="13.92" angle="90.00" x="-1583.70" y="-5251.60"/>
    </timestep>
    <timestep time="26.00">
        <vehicle id="veh1" eclass="Zero/default" CO2="0.00" CO="0.00" HC="0.00" NOx="0.00" PMx="0.00" fuel="0.00" electricity="0.00" noise="0.00" route="!veh1!var#1" type="eVehicle" waiting="0.00" lane="-A_0" pos="180.63" speed="14.33" angle="90.00" x="-1569.37" y="-5251.60"/>
    </timestep>
    <timestep time="27.00">
        <vehicle id="veh1" eclass="Zero/default" CO2="0.00" CO="0.00" HC="0.00" NOx="0.00" PMx="0.00" fuel="0.00" electricity="0.00" noise="0.00" route="!veh1!var#1" type="eVehicle" waiting="0.00" lane="-A_0" pos="194.27" speed="13.64" angle="90.00" x="-1555.73" y="-5251.60"/>
    </timestep>
    <timestep time="28.00">
        <vehicle id="veh1" eclass="Zero/default" CO2="0.00" CO="0.00" HC="0.00" NOx="0.00" PMx="0.00" fuel="0.00" electricity="0.00" noise="0.00" route="!veh1!var#1" type="eVehicle" waiting="0.00" lane="-A_0" pos="207.91" speed="13.64" angle="90.00" x="-1542.09" y="-5251.60"/>
    </timestep>
    <timestep time="29.00">
        <vehicle id="veh1" eclass="Zero/default" CO2="0.00" CO="0.00" HC="0.00" NOx="0.00" PMx="0.00" fuel="0.00" electricity="0.00" noise="0.00" route="!veh1!var#1" type="eVehicle" waiting="0.00" lane="-A_0" pos="221.99" speed="14.08" angle="90.00" x="-1528.01" y="-5251.60"/>
    </timestep>
    <timestep time="30.00">
        <vehicle id="veh1" eclass="Zero/default" CO2="0.00" CO="0.00" HC="0.00" NOx="0.00" PMx="0.00" fuel="0.00" electricity="0.00" noise="0.00" route="!veh1!var#1" type="eVehicle" waiting="0.00" lane="-A_0" pos="235.43" speed="13.45" angle="90.00" x="-1514.57" y="-5251.60"/>
    </timestep>
    <timestep time="31.00">
        <vehicle id="veh1" eclass="Zero/default" CO2="0.00" CO="0.00" HC="0.00" NOx="0.00" PMx="0.00" fuel="0.00" electricity="0.00" noise="0.00" route="!veh1!var#1" type="eVehicle" waiting="0.00" lane="-A_0" pos="249.26" speed="13.83" angle="90.00" x="-1500.74" y="-5251.60"/>
    </timestep>
    <timestep time="32.00">
        <vehicle id="veh1" eclass="Zero/default" CO2="0.00" CO="0.00" HC="0.00" NOx="0.00" PMx="0.00" fuel="0.00" electricity="0.00" noise="0.00" route="!veh1!var#1" type="eVehicle" waiting="0.00" lane="-A_0" pos="263.97" speed="14.71" angle="90.00" x="-1486.03" y="-5251.60"/>
    </timestep>
    <timestep time="33.00">
        <vehicle id="veh1" eclass="Zero/default" CO2="0.00" CO="0.00" HC="0.00" NOx="0.00" PMx="0.00" fuel="0.00" electricity="0.00" noise="0.00" route="!veh1!var#1" type="eVehicle" waiting="0.00" lane="-A_0" pos="277.82" speed="13.85" angle="90.00" x="-1472.18" y="-5251.60"/>
    </timestep>
    <timestep time="34.00">
        <vehicle id="veh1" eclass="Zero/default" CO2="0.00" CO="0.00" HC="0.00" NOx="0.00" PMx="0.00" fuel="0.00" electricity="0.00" noise="0.00" route="!veh1!var#1" type="eVehicle" waiting="0.00" lane="-A_0" pos="292.48" speed="14.66" angle="90.00" x="-1457.52" y="-5251.60"/>
    </timestep>
    <timestep time="35.00">
        <vehicle id="veh1" eclass="Zero/default" CO2="0.00" CO="0.00" HC="0.00" NOx="0.00" PMx="0.00" fuel="0.00" electricity="0.00" noise="0.00" route="!veh1!var#1" type="eVehicle" waiting="0.00" lane="-A_0" pos="306.60" speed="14.12" angle="90.00" x="-1443.40" y="-5251.60"/>
    </timestep>
    <timestep time="36.00">
        <vehicle id="veh1" eclass="Zero/default" CO2="0.00" CO="0.00" HC="0.00" NOx="0.00" PMx="0.00" fuel="0.00" electricity="0.00" noise="0.00" route="!veh1!var#1" type="eVehicle" waiting="0.00" lane="-A_0" pos="320.83" speed="14.22" angle="90.00" x="-1429.17" y="-5251.60"/>
    </timestep>
    <timestep time="37.00">
        <vehicle id="veh1" eclass="Zero/default" CO2="0.00" CO="0.00" HC="0.00" NOx="0.00" PMx="0.00" fuel="0.00" electricity="0.00" noise="0.00" route="!veh1!var#1" type="eVehicle" waiting="0.00" lane="-A_0" pos="334.84" speed="14.02" angle="90.00" x="-1415.16" y="-5251.60"/>
    </timestep>
    <timestep time="38.00">
        <vehicle id="veh1" eclass="Zero/default" CO2="0.00" CO="0.00" HC="0.00" NOx="0.00" PMx="0.00" fuel="0.00" electricity="0.00" noise="0.00" route="!veh1!var#1" type="eVehicle" waiting="0.00" lane="-A_0" pos="348.38" speed="13.54" angle="90.00" x="-1401.62" y="-5251.60"/>
    </timestep>
    <timestep time="39.00">
        <vehicle id="veh1" eclass="Zero/default" CO2="0.00" CO="0.00" HC="0.00" NOx="0.00" PMx="0.00" fuel="0.00" electricity="0.00" noise="0.00" route="!veh1!var#1" type="eVehicle" waiting="0.00" lane="-A_0" pos="361.82" speed="13.44" angle="90.00" x="-1388.18" y="-5251.60"/>
    </timestep>
    <timestep time="40.00">
        <vehicle id="veh1" eclass="Zero/default" CO2="0.00" CO="0.00" HC="0.00" NOx="0.00" PMx="0.00" fuel="0.00" electricity="0.00" noise="0.00" route="!veh1!var#1" type="eVehicle" waiting="0.00" lane="-A_0" pos="375.98" speed="14.16" angle="90.00" x="-1374.02" y="-5251.60"/>
    </timestep>
    <timestep time="41.00">
        <vehicle id="veh1" eclass="Zero/default" CO2="0.00" CO="0.00" HC="0.00" NOx="0.00" PMx="0.00" fuel="0.00" electricity="0.00" noise="0.00" route="!veh1!var#1" type="eVehicle" waiting="0.00" lane="-A_0" pos="389.78" speed="13.80" angle="90.00" x="-1360.22" y="-5251.60"/>
    </timestep>
    <timestep time="42.00">
        <vehicle id="veh1" eclass="Zero/default" CO2="0.00" CO="0.00" HC="0.00" NOx="0.00" PMx="0.00" fuel="0.00" electricity="0.00" noise="0.00" route="!veh1!var#1" type="eVehicle" waiting="0.00" lane="-A_0" pos="403.25" speed="13.47" angle="90.00" x="-1346.75" y="-5251.60"/>
    </timestep>
    <timestep time="43.00">
        <vehicle id="veh1" eclass="Zero/default" CO2="0.00" CO="0.00" HC="0.00" NOx="0.00" PMx="0.00" fuel="0.00" electricity="0.00" noise="0.00" route="!veh1!var#1" type="eVehicle" waiting="0.00" lane="-A_0" pos="416.77" speed="13.52" angle="90.00" x="-1333.23" y="-5251.60"/>
    </timestep>
    <timestep time="44.00">
        <vehicle id="veh1" eclass="Zero/default" CO2="0.00" CO="0.00" HC="0.00" NOx="0.00" PMx="0.00" fuel="0.00" electricity="0.00" noise="0.00" route="!veh1!var#1" type="eVehicle" waiting="0.00" lane="-A_0" pos="431.08" speed="14.32" angle="90.00" x="-1318.92" y="-5251.60"/>
    </timestep>
    <timestep time="45.00">
        <vehicle id="veh1" eclass="Zero/default" CO2="0.00" CO="0.00" HC="0.00" NOx="0.00" PMx="0.00" fuel="0.00" electricity="0.00" noise="0.00" route="!veh1!var#1" type="eVehicle" waiting="0.00" lane="-A_0" pos="444.60" speed="13.52" angle="90.00" x="-1305.40" y="-5251.60"/>
    </timestep>
    <timestep time="46.00">
        <vehicle id="veh1" eclass="Zero/default" CO2="0.00" CO="0.00" HC="0.00" NOx="0.00" PMx="0.00" fuel="0.00" electricity="0.00" noise="0.00" route="!veh1!var#1" type="eVehicle" waiting="0.00" lane="-A_0" pos="458.54" speed="13.93" angle="90.00" x="-1291.46" y="-5251.60"/>
    </timestep>
    <timestep time="47.00">
        <vehicle id="veh1" eclass="Zero/default" CO2="0.00" CO="0.00" HC="0.00" NOx="0.00" PMx="0.00" fuel="0.00" electricity="0.00" noise="0.00" route="!veh1!var#1" type="eVehicle" waiting="0.00" lane="-A_0" pos="471.97" speed="13.43" angle="90.00" x="-1278.03" y="-5251.60"/>
    </timestep>
    <timestep time="48.00">
        <vehicle id="veh1" eclass="Zero/default" CO2="0.00" CO="0.00" HC="0.00" NOx="0.00" PMx="0.00" fuel="0.00" electricity="0.00" noise="0.00" route="!veh1!var#1" type="eVehicle" waiting="0.00" lane="-A_0" pos="486.66" speed="14.69" angle="90.00" x="-1263.34" y="-5251.60"/>
    </timestep>
    <timestep time="49.00">
        <vehicle id="veh1" eclass="Zero/default" CO2="0.00" CO="0.00" HC="0.00" NOx="0.00" PMx="0.00" fuel="0.00" electricity="0.00" noise="0.00" route="!veh1!var#1" type="eVehicle" waiting="0.00" lane="-A_0" pos="500.10" speed="13.44" angle="90.00" x="-1249.90" y="-5251.60"/>
    </timestep>
    <timestep time="50.00">
        <vehicle id="veh1" eclass="Zero/default" CO2="0.00" CO="0.00" HC="0.00" NOx="0.00" PMx="0.00" fuel="0.00" electricity="0.00" noise="0.00" route="!veh1!var#1" type="eVehicle" waiting="0.00" lane="-A_0" pos="513.87" speed="13.76" angle="90.00" x="-1236.13" y="-5251.60"/>
    </timestep>
    <timestep time="51.00">
        <vehicle id="veh1" eclass="Zero/default" CO2="0.00" CO="0.00" HC="0.00" NOx="0.00" PMx="0.00" fuel="0.00" electricity="0.00" noise="0.00" route="!veh1!var#1" type="eVehicle" waiting="0.00" lane="-A_0" pos="527.98" speed="14.11" angle="90.00" x="-1222.02" y="-5251.60"/>
    </timestep>
    <timestep time="52.00">
        <vehicle id="veh1" eclass="Zero/default" CO2="0.00" CO="0.00" HC="0.00" NOx="0.00" PMx="0.00" fuel="0.00" electricity="0.00" noise="0.00" route="!veh1!var#1" type="eVehicle" waiting="0.00" lane="-A_0" pos="542.25" speed="14.27" angle="90.00" x="-1207.75" y="-5251.60"/>
    </timestep>
    <timestep time="53.00">
        <vehicle id="veh1" eclass="Zero/default" CO2="0.00" CO="0.00" HC="0.00" NOx="0.00" PMx="0.00" fuel="0.00" electricity="0.00" noise="0.00" route="!veh1!var#1" type="eVehicle" waiting="0.00" lane="-A_0" pos="556.78" speed="14.53" angle="90.00" x="-1193.22" y="-5251.60"/>
    </timestep>
    <timestep time="54.00">
        <vehicle id="veh1" eclass="Zero/default" CO2="0.00" CO="0.00" HC="0.00" NOx="0.00" PMx="0.00" fuel="0.00" electricity="0.00" noise="0.00" route="!veh1!var#1" type="eVehicle" waiting="0.00" lane="-A_0" pos="571.11" speed="14.33" angle="90.00" x="-1178.89" y="-5251.60"/>
    </timestep>
    <timestep time="55.00">
        <vehicle id="veh1" eclass="Zero/default" CO2="0.00" CO="0.00" HC="0.00" NOx="0.00" PMx="0.00" fuel="0.00" electricity="0.00" noise="0.00" route="!veh1!var#1" type="eVehicle" waiting="0.00" lane="-A_0" pos="584.81" speed="13.70" angle="90.00" x="-1165.19" y="-5251.60"/>
    </timestep>
    <timestep time="56.00">
        <vehicle id="veh1" eclass="Zero/default" CO2="0.00" CO="0.00" HC="0.00" NOx="0.00" PMx="0.00" fuel="0.00" electricity="0.00" noise="0.00" route="!veh1!var#1" type="eVehicle" waiting="0.00" lane="-A_0" pos="599.26" speed="14.45" angle="90.00" x="-1150.74" y="-5251.60"/>
    </timestep>
    <timestep time="57.00">
        <vehicle id="veh1" eclass="Zero/default" CO2="0.00" CO="0.00" HC="0.00" NOx="0.00" PMx="0.00" fuel="0.00" electricity="0.00" noise="0.00" route="!veh1!var#1" type="eVehicle" waiting="0.00" lane="-A_0" pos="613.38" speed="14.12" angle="90.00" x="-1136.62" y="-5251.60"/>
    </timestep>
    <timestep time="58.00">
        <vehicle id="veh1" eclass="Zero/default" CO2="0.00" CO="0.00" HC="0.00" NOx="0.00" PMx="0.00" fuel="0.00" electricity="0.00" noise="0.00" route="!veh1!var#1" type="eVehicle" waiting="0.00" lane="-A_0" pos="627.04" speed="13.66" angle="90.00" x="-1122.96" y="-5251.60"/>
    </timestep>
    <timestep time="59.00">
        <vehicle id="veh1" eclass="Zero/default" CO2="0.00" CO="0.00" HC="0.00" NOx="0.00" PMx="0.00" fuel="0.00" electricity="0.00" noise="0.00" route="!veh1!var#1" type="eVehicle" waiting="0.00" lane="-A_0" pos="640.54" speed="13.49" angle="90.00" x="-1109.46" y="-5251.60"/>
    </timestep>
    <timestep time="60.00">
        <vehicle id="veh1" eclass="Zero/default" CO2="0.00" CO="0.00" HC="0.00" NOx="0.00" PMx="0.00" fuel="0.00" electricity="0.00" noise="0.00" route="!veh1!var#1" type="eVehicle" waiting="0.00" lane="-A_0" pos="654.81" speed="14.27" angle="90.00" x="-1095.19" y="-5251.60"/>
    </timestep>
    <timestep time="61.00">
        <vehicle id="veh1" eclass="Zero/default" CO2="0.00" CO="0.00" HC="0.00" NOx="0.00" PMx="0.00" fuel="0.00" electricity="0.00" noise="0.00" route="!veh1!var#1" type="eVehicle" waiting="0.00" lane="-A_0" pos="669.06" speed="14.25" angle="90.00" x="-1080.94" y="-5251.60"/>
    </timestep>
    <timestep time="62.00">
        <vehicle id="veh1" eclass="Zero/default" CO2="0.00" CO="0.00" HC="0.00" NOx="0.00" PMx="0.00" fuel="0.00" electricity="0.00" noise="0.00" route="!veh1!var#1" type="eVehicle" waiting="0.00" lane="-A_0" pos="683.74" speed="14.67" angle="90.00" x="-1066.26" y="-5251.60"/>
    </timestep>
    <timestep time="63.00">
        <vehicle id="veh1" eclass="Zero/default" CO2="0.00" CO="0.00" HC="0.00" NOx="0.00" PMx="0.00" fuel="0.00" electricity="0.00" noise="0.00" route="!veh1!var#1" type="eVehicle" waiting="0.00" lane="-A_0" pos="697.77" speed="14.03" angle="90.00" x="-1052.23" y="-5251.60"/>
    </timestep>
    <timestep time="64.00">
        <vehicle id="veh1" eclass="Zero/default" CO2="0.00" CO="0.00" HC="0.00" NOx="0.00" PMx="0.00" fuel="0.00" electricity="0.00" noise="0.00" route="!veh1!var#1" type="eVehicle" waiting="0.00" lane="-A_0" pos="711.88" speed="14.11" angle="90.00" x="-1038.12" y="-5251.60"/>
    </timestep>
    <timestep time="65.00">
        <vehicle id="veh1" eclass="Zero/default" CO2="0.00" CO="0.00" HC="0.00" NOx="0.00" PMx="0.00" fuel="0.00" electricity="0.00" noise="0.00" route="!veh1!var#1" type="eVehicle" waiting="0.00" lane="-A_0" pos="725.92" speed="14.04" angle="90.00" x="-1024.08" y="-5251.60"/>
    </timestep>
    <timestep time="66.00">
        <vehicle id="veh1" eclass="Zero/default" CO2="0.00" CO="0.00" HC="0.00" NOx="0.00" PMx="0.00" fuel="0.00" electricity="0.00" noise="0.00" route="!veh1!var#1" type="eVehicle" waiting="0.00" lane="-A_0" pos="739.82" speed="13.91" angle="90.00" x="-1010.18" y="-5251.60"/>
    </timestep>
    <timestep time="67.00">
        <vehicle id="veh1" eclass="Zero/default" CO2="0.00" CO="0.00" HC="0.00" NOx="0.00" PMx="0.00" fuel="0.00" electricity="0.00" noise="0.00" route="!veh1!var#1" type="eVehicle" waiting="0.00" lane="-A_0" pos="754.42" speed="14.60" angle="90.00" x="-995.58" y="-5251.60"/>
    </timestep>
    <timestep time="68.00">
        <vehicle id="veh1" eclass="Zero/default" CO2="0.00" CO="0.00" HC="0.00" NOx="0.00" PMx="0.00" fuel="0.00" electricity="0.00" noise="0.00" route="!veh1!var#1" type="eVehicle" waiting="0.00" lane="-A_0" pos="768.93" speed="14.51" angle="90.00" x="-981.07" y="-5251.60"/>
    </timestep>
    <timestep time="69.00">
        <vehicle id="veh1" eclass="Zero/default" CO2="0.00" CO="0.00" HC="0.00" NOx="0.00" PMx="0.00" fuel="0.00" electricity="0.00" noise="0.00" route="!veh1!var#1" type="eVehicle" waiting="0.00" lane="-A_0" pos="783.57" speed="14.64" angle="90.00" x="-966.43" y="-5251.60"/>
    </timestep>
    <timestep time="70.00">
        <vehicle id="veh1" eclass="Zero/default" CO2="0.00" CO="0.00" HC="0.00" NOx="0.00" PMx="0.00" fuel="0.00" electricity="0.00" noise="0.00" route="!veh1!var#1" type="eVehicle" waiting="0.00" lane="-A_0" pos="797.60" speed="14.03" angle="90.00" x="-952.40" y="-5251.60"/>
        <vehicle id="veh2" eclass="HBEFA3/PC_G_EU4" CO2="2624.72" CO="164.78" HC="0.81" NOx="1.20" PMx="0.07" fuel="1.13" electricity="0.00" noise="55.94" route="!veh2!var#1" type="normalVehicle" waiting="0.00" lane="-E_0" pos="5.10" speed="0.00" angle="180.00" x="5248.40" y="1744.90"/>
        <vehicle id="veh3" eclass="HBEFA3/PC_G_EU4" CO2="2624.72" CO="164.78" HC="0.81" NOx="1.20" PMx="0.07" fuel="1.13" electricity="0.00" noise="55.94" route="!veh3!var#1" type="normalVehicle" waiting="0.00" lane="-F_0" pos="5.10" speed="0.00" angle="180.00" x="6998.40" y="1744.90"/>
    </timestep>
    <timestep time="71.00">
        <vehicle id="veh1" eclass="Zero/default" CO2="0.00" CO="0.00" HC="0.00" NOx="0.00" PMx="0.00" fuel="0.00" electricity="0.00" noise="0.00" route="!veh1!var#1" type="eVehicle" waiting="0.00" lane="-A_0" pos="811.72" speed="14.12" angle="90.00" x="-938.28" y="-5251.60"/>
        <vehicle id="veh2" eclass="HBEFA3/PC_G_EU4" CO2="3329.71" CO="147.54" HC="0.75" NOx="1.49" PMx="0.07" fuel="1.43" electricity="0.00" noise="64.93" route="!veh2!var#1" type="normalVehicle" waiting="0.00" lane="-E_0" pos="6.98" speed="1.88" angle="180.00" x="5248.40" y="1743.02"/>
        <vehicle id="veh3" eclass="HBEFA3/PC_G_EU4" CO2="3937.35" CO="150.76" HC="0.78" NOx="1.76" PMx="0.09" fuel="1.69" electricity="0.00" noise="67.74" route="!veh3!var#1" type="normalVehicle" waiting="0.00" lane="-F_0" pos="7.57" speed="2.47" angle="180.00" x="6998.40" y="1742.43"/>
    </timestep>
    <timestep time="72.00">
        <vehicle id="veh1" eclass="Zero/default" CO2="0.00" CO="0.00" HC="0.00" NOx="0.00" PMx="0.00" fuel="0.00" electricity="0.00" noise="0.00" route="!veh1!var#1" type="eVehicle" waiting="0.00" lane="-A_0" pos="825.90" speed="14.18" angle="90.00" x="-924.10" y="-5251.60"/>
        <vehicle id="veh2" eclass="HBEFA3/PC_G_EU4" CO2="4177.16" CO="135.30" HC="0.71" NOx="1.83" PMx="0.09" fuel="1.80" electricity="0.00" noise="66.00" route="!veh2!var#1" type="normalVehicle" waiting="0.00" lane="-E_0" pos="10.80" speed="3.82" angle="180.00" x="5248.40" y="1739.20"/>
        <vehicle id="veh3" eclass="HBEFA3/PC_G_EU4" CO2="3815.75" CO="125.44" HC="0.66" NOx="1.66" PMx="0.08" fuel="1.64" electricity="0.00" noise="64.25" route="!veh3!var#1" type="normalVehicle" waiting="0.00" lane="-F_0" pos="11.55" speed="3.99" angle="180.00" x="6998.40" y="1738.45"/>
    </timestep>
    <timestep time="73.00">
        <vehicle id="veh1" eclass="Zero/default" CO2="0.00" CO="0.00" HC="0.00" NOx="0.00" PMx="0.00" fuel="0.00" electricity="0.00" noise="0.00" route="!veh1!var#1" type="eVehicle" waiting="0.00" lane="-A_0" pos="840.43" speed="14.53" angle="90.00" x="-909.57" y="-5251.60"/>
        <vehicle id="veh2" eclass="HBEFA3/PC_G_EU4" CO2="6073.94" CO="141.66" HC="0.79" NOx="2.66" PMx="0.13" fuel="2.61" electricity="0.00" noise="69.17" route="!veh2!var#1" type="normalVehicle" waiting="0.00" lane="-E_0" pos="17.05" speed="6.25" angle="180.00" x="5248.40" y="1732.95"/>
        <vehicle id="veh3" eclass="HBEFA3/PC_G_EU4" CO2="5360.24" CO="129.56" HC="0.72" NOx="2.33" PMx="0.11" fuel="2.30" electricity="0.00" noise="67.46" route="!veh3!var#1" type="normalVehicle" waiting="0.00" lane="-F_0" pos="17.60" speed="6.04" angle="180.00" x="6998.40" y="1732.40"/>
    </timestep>
    <timestep time="74.00">
        <vehicle id="veh1" eclass="Zero/default" CO2="0.00" CO="0.00" HC="0.00" NOx="0.00" PMx="0.00" fuel="0.00" electricity="0.00" noise="0.00" route="!veh1!var#1" type="eVehicle" waiting="0.00" lane="-A_0" pos="854.45" speed="14.02" angle="90.00" x="-895.55" y="-5251.60"/>
        <vehicle id="veh2" eclass="HBEFA3/PC_G_EU4" CO2="5832.95" CO="115.77" HC="0.67" NOx="2.50" PMx="0.11" fuel="2.51" electricity="0.00" noise="67.26" route="!veh2!var#1" type="normalVehicle" waiting="0.00" lane="-E_0" pos="25.09" speed="8.04" angle="180.00" x="5248.40" y="1724.91"/>
        <vehicle id="veh3" eclass="HBEFA3/PC_G_EU4" CO2="6172.29" CO="123.15" HC="0.71" NOx="2.66" PMx="0.12" fuel="2.65" electricity="0.00" noise="67.96" route="!veh3!var#1" type="normalVehicle" waiting="0.00" lane="-F_0" pos="25.60" speed="8.00" angle="180.00" x="6998.40" y="1724.40"/>
    </timestep>
    <timestep time="75.00">
        <vehicle id="veh1" eclass="Zero/default" CO2="0.00" CO="0.00" HC="0.00" NOx="0.00" PMx="0.00" fuel="0.00" electricity="0.00" noise="0.00" route="!veh1!var#1" type="eVehicle" waiting="0.00" lane="-A_0" pos="868.88" speed="14.43" angle="90.00" x="-881.12" y="-5251.60"/>
        <vehicle id="veh2" eclass="HBEFA3/PC_G_EU4" CO2="6761.71" CO="116.40" HC="0.69" NOx="2.89" PMx="0.13" fuel="2.91" electricity="0.00" noise="68.26" route="!veh2!var#1" type="normalVehicle" waiting="0.00" lane="-E_0" pos="34.93" speed="9.85" angle="180.00" x="5248.40" y="1715.07"/>
        <vehicle id="veh3" eclass="HBEFA3/PC_G_EU4" CO2="7454.81" CO="128.87" HC="0.76" NOx="3.22" PMx="0.15" fuel="3.20" electricity="0.00" noise="69.30" route="!veh3!var#1" type="normalVehicle" waiting="0.00" lane="-F_0" pos="35.64" speed="10.04" angle="180.00" x="6998.40" y="1714.36"/>
    </timestep>
    <timestep time="76.00">
        <vehicle id="veh1" eclass="Zero/default" CO2="0.00" CO="0.00" HC="0.00" NOx="0.00" PMx="0.00" fuel="0.00" electricity="0.00" noise="0.00" route="!veh1!var#1" type="eVehicle" waiting="0.00" lane="-A_0" pos="883.09" speed="14.21" angle="90.00" x="-866.91" y="-5251.60"/>
        <vehicle id="veh2" eclass="HBEFA3/PC_G_EU4" CO2="7989.07" CO="125.26" HC="0.76" NOx="3.42" PMx="0.16" fuel="3.43" electricity="0.00" noise="69.56" route="!veh2!var#1" type="normalVehicle" waiting="0.00" lane="-E_0" pos="46.68" speed="11.74" angle="180.00" x="5248.40" y="1703.32"/>
        <vehicle id="veh3" eclass="HBEFA3/PC_G_EU4" CO2="7379.59" CO="112.75" HC="0.69" NOx="3.14" PMx="0.15" fuel="3.17" electricity="0.00" noise="68.77" route="!veh3!var#1" type="normalVehicle" waiting="0.00" lane="-F_0" pos="47.38" speed="11.74" angle="180.00" x="6998.40" y="1702.62"/>
    </timestep>
    <timestep time="77.00">
        <vehicle id="veh1" eclass="Zero/default" CO2="0.00" CO="0.00" HC="0.00" NOx="0.00" PMx="0.00" fuel="0.00" electricity="0.00" noise="0.00" route="!veh1!var#1" type="eVehicle" waiting="0.00" lane="-A_0" pos="897.22" speed="14.13" angle="90.00" x="-852.78" y="-5251.60"/>
        <vehicle id="veh2" eclass="HBEFA3/PC_G_EU4" CO2="6265.06" CO="81.01" HC="0.52" NOx="2.58" PMx="0.12" fuel="2.69" electricity="0.00" noise="67.50" route="!veh2!var#1" type="normalVehicle" waiting="0.00" lane="-E_0" pos="59.61" speed="12.93" angle="180.00" x="5248.40" y="1690.39"/>
        <vehicle id="veh3" eclass="HBEFA3/PC_G_EU4" CO2="9289.38" CO="138.31" HC="0.85" NOx="3.99" PMx="0.19" fuel="3.99" electricity="0.00" noise="70.78" route="!veh3!var#1" type="normalVehicle" waiting="0.00" lane="-F_0" pos="61.07" speed="13.69" angle="180.00" x="6998.40" y="1688.93"/>
    </timestep>
    <timestep time="78.00">
        <vehicle id="veh1" eclass="Zero/default" CO2="0.00" CO="0.00" HC="0.00" NOx="0.00" PMx="0.00" fuel="0.00" electricity="0.00" noise="0.00" route="!veh1!var#1" type="eVehicle" waiting="0.00" lane="-A_0" pos="911.27" speed="14.05" angle="90.00" x="-838.73" y="-5251.60"/>
        <vehicle id="veh2" eclass="HBEFA3/PC_G_EU4" CO2="0.00" CO="0.00" HC="0.00" NOx="0.00" PMx="0.00" fuel="0.00" electricity="0.00" noise="60.69" route="!veh2!var#1" type="normalVehicle" waiting="0.00" lane="-E_0" pos="71.36" speed="11.75" angle="180.00" x="5248.40" y="1678.64"/>
        <vehicle id="veh3" eclass="HBEFA3/PC_G_EU4" CO2="0.00" CO="0.00" HC="0.00" NOx="0.00" PMx="0.00" fuel="0.00" electricity="0.00" noise="62.14" route="!veh3!var#1" type="normalVehicle" waiting="0.00" lane="-F_0" pos="73.91" speed="12.84" angle="180.00" x="6998.40" y="1676.09"/>
    </timestep>
    <timestep time="79.00">
        <vehicle id="veh1" eclass="Zero/default" CO2="0.00" CO="0.00" HC="0.00" NOx="0.00" PMx="0.00" fuel="0.00" electricity="0.00" noise="0.00" route="!veh1!var#1" type="eVehicle" waiting="0.00" lane="-A_0" pos="924.78" speed="13.51" angle="90.00" x="-825.22" y="-5251.60"/>
        <vehicle id="veh2" eclass="HBEFA3/PC_G_EU4" CO2="4877.12" CO="55.08" HC="0.37" NOx="1.93" PMx="0.08" fuel="2.10" electricity="0.00" noise="65.98" route="!veh2!var#1" type="normalVehicle" waiting="0.00" lane="-E_0" pos="83.92" speed="12.56" angle="180.00" x="5248.40" y="1666.08"/>
        <vehicle id="veh3" eclass="HBEFA3/PC_G_EU4" CO2="5368.37" CO="57.54" HC="0.39" NOx="2.14" PMx="0.09" fuel="2.31" electricity="0.00" noise="66.82" route="!veh3!var#1" type="normalVehicle" waiting="0.00" lane="-F_0" pos="87.61" speed="13.70" angle="180.00" x="6998.40" y="1662.39"/>
    </timestep>
    <timestep time="80.00">
        <vehicle id="veh1" eclass="Zero/default" CO2="0.00" CO="0.00" HC="0.00" NOx="0.00" PMx="0.00" fuel="0.00" electricity="0.00" noise="0.00" route="!veh1!var#1" type="eVehicle" waiting="0.00" lane="-A_0" pos="939.31" speed="14.53" angle="90.00" x="-810.69" y="-5251.60"/>