<?xml version="1.0" encoding="UTF-8"?>

<!-- generated on 02/11/21 17:47:57 by Eclipse SUMO GUI Version 1.7.0
<configuration xmlns:xsi="http://www.w3.org/2001/XMLSchema-instance" xsi:noNamespaceSchemaLocation="http://sumo.dlr.de/xsd/sumoConfiguration.xsd">

    <input>
        <net-file value="case0.net.xml"/>
        <route-files value="case0.rou.xml"/>
        <additional-files value="case0.add.xml"/>
    </input>

    <output>
        <emission-output value="emissionOutput.xml"/>
        <tripinfo-output value="tripinfo.xml"/>
    </output>

    <processing>
        <ignore-route-errors value="true"/>
    </processing>

    <traci_server>
        <remote-port value="59608"/>
    </traci_server>

</configuration>
-->

<tripinfos xmlns:xsi="http://www.w3.org/2001/XMLSchema-instance" xsi:noNamespaceSchemaLocation="http://sumo.dlr.de/xsd/tripinfo_file.xsd">
    <tripinfo id="veh19" depart="84.00" departLane="-A_0" departPos="5.10" departSpeed="0.00" departDelay="0.00" arrival="1130.00" arrivalLane="C_0" arrivalPos="1742.80" arrivalSpeed="16.03" duration="1046.00" routeLength="15744.90" waitingTime="0.00" waitingCount="0" stopTime="0.00" timeLoss="67.09" rerouteNo="1" devices="tripinfo_veh19 routing_veh19 emissions_veh19" vType="eVehicle" speedFactor="1.16" vaporized="">
        <emissions CO_abs="0" CO2_abs="0" HC_abs="0" PMx_abs="0" NOx_abs="0" fuel_abs="0" electricity_abs="0"/>
    </tripinfo>
    <tripinfo id="veh0" depart="1.00" departLane="-D_0" departPos="5.10" departSpeed="0.00" departDelay="0.00" arrival="1141.00" arrivalLane="B_0" arrivalPos="1742.80" arrivalSpeed="14.11" duration="1140.00" routeLength="15744.90" waitingTime="0.00" waitingCount="0" stopTime="0.00" timeLoss="70.22" rerouteNo="1" devices="tripinfo_veh0 routing_veh0 emissions_veh0" vType="gasolineEuroSix" speedFactor="1.06" vaporized="">
        <emissions CO_abs="49333.373856" CO2_abs="2519011.323448" HC_abs="259.681700" PMx_abs="93.437195" NOx_abs="568.941547" fuel_abs="1082.919710" electricity_abs="0"/>
    </tripinfo>
    <tripinfo id="veh4" depart="15.00" departLane="-E_0" departPos="5.10" departSpeed="0.00" departDelay="0.00" arrival="1172.00" arrivalLane="G_0" arrivalPos="1742.80" arrivalSpeed="13.53" duration="1157.00" routeLength="15744.90" waitingTime="0.00" waitingCount="0" stopTime="0.00" timeLoss="56.56" rerouteNo="1" devices="tripinfo_veh4 routing_veh4 emissions_veh4" vType="eVehicle" speedFactor="1.03" vaporized="">
        <emissions CO_abs="0" CO2_abs="0" HC_abs="0" PMx_abs="0" NOx_abs="0" fuel_abs="0" electricity_abs="0"/>
    </tripinfo>
    <tripinfo id="veh6" depart="22.00" departLane="-B_0" departPos="5.10" departSpeed="0.00" departDelay="0.00" arrival="1176.00" arrivalLane="D_0" arrivalPos="1742.80" arrivalSpeed="14.20" duration="1154.00" routeLength="15744.90" waitingTime="0.00" waitingCount="0" stopTime="0.00" timeLoss="69.85" rerouteNo="1" devices="tripinfo_veh6 routing_veh6 emissions_veh6" vType="highEmissions" speedFactor="1.05" vaporized="">
        <emissions CO_abs="38258.817948" CO2_abs="2591640.735230" HC_abs="405.271795" PMx_abs="73.040106" NOx_abs="747.432613" fuel_abs="1114.005205" electricity_abs="0"/>
    </tripinfo>
    <tripinfo id="veh51" depart="202.00" departLane="-A_0" departPos="5.10" departSpeed="0.00" departDelay="0.00" arrival="1245.00" arrivalLane="C_0" arrivalPos="1742.80" arrivalSpeed="15.37" duration="1043.00" routeLength="15744.90" waitingTime="3.00" waitingCount="1" stopTime="0.00" timeLoss="72.81" rerouteNo="1" devices="tripinfo_veh51 routing_veh51 emissions_veh51" vType="gasolineEuroSix" speedFactor="1.17" vaporized="">
        <emissions CO_abs="50594.832292" CO2_abs="2499687.176866" HC_abs="266.489094" PMx_abs="96.845044" NOx_abs="556.114794" fuel_abs="1074.610747" electricity_abs="0"/>
    </tripinfo>
    <tripinfo id="veh1" depart="4.00" departLane="-D_0" departPos="5.10" departSpeed="0.00" departDelay="3.00" arrival="1303.00" arrivalLane="B_0" arrivalPos="1742.80" arrivalSpeed="12.81" duration="1299.00" routeLength="15744.90" waitingTime="8.00" waitingCount="1" stopTime="0.00" timeLoss="90.02" rerouteNo="1" devices="tripinfo_veh1 routing_veh1 emissions_veh1" vType="highEmissions" speedFactor="0.94" vaporized="">
        <emissions CO_abs="40406.023653" CO2_abs="2607965.003675" HC_abs="400.714786" PMx_abs="73.571609" NOx_abs="793.024981" fuel_abs="1121.009042" electricity_abs="0"/>
    </tripinfo>
    <tripinfo id="veh2" depart="7.00" departLane="-D_0" departPos="5.10" departSpeed="0.00" departDelay="5.00" arrival="1304.00" arrivalLane="B_0" arrivalPos="1742.80" arrivalSpeed="13.41" duration="1297.00" routeLength="15744.90" waitingTime="7.00" waitingCount="1" stopTime="0.00" timeLoss="174.93" rerouteNo="1" devices="tripinfo_veh2 routing_veh2 emissions_veh2" vType="hovGasolinaEuroSix" speedFactor="1.01" vaporized="">
        <emissions CO_abs="347.229251" CO2_abs="2173277.491287" HC_abs="97.651432" PMx_abs="41.102797" NOx_abs="3588.168795" fuel_abs="817.662580" electricity_abs="0"/>
    </tripinfo>
    <tripinfo id="veh3" depart="10.00" departLane="-D_0" departPos="5.10" departSpeed="0.00" departDelay="8.00" arrival="1306.00" arrivalLane="B_0" arrivalPos="1742.80" arrivalSpeed="13.91" duration="1296.00" routeLength="15744.90" waitingTime="7.00" waitingCount="1" stopTime="0.00" timeLoss="248.46" rerouteNo="1" devices="tripinfo_veh3 routing_veh3 emissions_veh3" vType="highEmissions" speedFactor="1.08" vaporized="">
        <emissions CO_abs="67135.373138" CO2_abs="3437239.310967" HC_abs="609.396941" PMx_abs="116.433331" NOx_abs="1070.672116" fuel_abs="1477.510109" electricity_abs="0"/>
    </tripinfo>
    <tripinfo id="veh22" depart="91.00" departLane="-H_0" departPos="5.10" departSpeed="0.00" departDelay="0.00" arrival="1313.00" arrivalLane="F_0" arrivalPos="1742.80" arrivalSpeed="12.81" duration="1222.00" routeLength="15744.90" waitingTime="0.00" waitingCount="0" stopTime="0.00" timeLoss="59.31" rerouteNo="1" devices="tripinfo_veh22 routing_veh22 emissions_veh22" vType="normalVehicle" speedFactor="0.98" vaporized="">
        <emissions CO_abs="18182.440380" CO2_abs="2321497.135746" HC_abs="136.229095" PMx_abs="31.165187" NOx_abs="864.462599" fuel_abs="997.914548" electricity_abs="0"/>
    </tripinfo>
    <tripinfo id="veh61" depart="238.00" departLane="-A_0" departPos="5.10" departSpeed="0.00" departDelay="0.00" arrival="1315.00" arrivalLane="C_0" arrivalPos="1742.80" arrivalSpeed="15.19" duration="1077.00" routeLength="15744.90" waitingTime="0.00" waitingCount="0" stopTime="0.00" timeLoss="63.41" rerouteNo="1" devices="tripinfo_veh61 routing_veh61 emissions_veh61" vType="dieselEuroSix" speedFactor="1.12" vaporized="">
        <emissions CO_abs="227.469428" CO2_abs="2428130.704566" HC_abs="83.357416" PMx_abs="0" NOx_abs="4303.760718" fuel_abs="913.601789" electricity_abs="0"/>
    </tripinfo>
    <tripinfo id="veh8" depart="32.00" departLane="-B_0" departPos="5.10" departSpeed="0.00" departDelay="0.00" arrival="1317.00" arrivalLane="D_0" arrivalPos="1742.80" arrivalSpeed="11.86" duration="1285.00" routeLength="15744.90" waitingTime="0.00" waitingCount="0" stopTime="0.00" timeLoss="75.56" rerouteNo="1" devices="tripinfo_veh8 routing_veh8 emissions_veh8" vType="normalVehicle" speedFactor="0.94" vaporized="">
        <emissions CO_abs="22940.840842" CO2_abs="2526650.536066" HC_abs="162.708255" PMx_abs="34.783298" NOx_abs="953.046231" fuel_abs="1086.102127" electricity_abs="0"/>
    </tripinfo>
    <tripinfo id="veh14" depart="71.00" departLane="-B_0" departPos="5.10" departSpeed="0.00" departDelay="0.00" arrival="1318.00" arrivalLane="D_0" arrivalPos="1742.80" arrivalSpeed="12.54" duration="1247.00" routeLength="15744.90" waitingTime="0.00" waitingCount="0" stopTime="0.00" timeLoss="103.29" rerouteNo="1" devices="tripinfo_veh14 routing_veh14 emissions_veh14" vType="dieselEuroSix" speedFactor="0.99" vaporized="">
        <emissions CO_abs="267.003799" CO2_abs="2581821.633686" HC_abs="86.188212" PMx_abs="0" NOx_abs="4592.690747" fuel_abs="971.429142" electricity_abs="0"/>
    </tripinfo>
    <tripinfo id="veh32" depart="147.00" departLane="-C_0" departPos="5.10" departSpeed="0.00" departDelay="0.00" arrival="1351.00" arrivalLane="A_0" arrivalPos="1742.80" arrivalSpeed="13.32" duration="1204.00" routeLength="15744.90" waitingTime="1.00" waitingCount="1" stopTime="0.00" timeLoss="76.08" rerouteNo="1" devices="tripinfo_veh32 routing_veh32 emissions_veh32" vType="gasolineEuroSix" speedFactor="1.01" vaporized="">
        <emissions CO_abs="51064.761171" CO2_abs="2586393.434327" HC_abs="266.350949" PMx_abs="94.914406" NOx_abs="588.190034" fuel_abs="1111.888552" electricity_abs="0"/>
    </tripinfo>
    <tripinfo id="veh15" depart="73.00" departLane="-F_0" departPos="5.10" departSpeed="0.00" departDelay="0.00" arrival="1362.00" arrivalLane="H_0" arrivalPos="1742.80" arrivalSpeed="12.19" duration="1289.00" routeLength="15744.90" waitingTime="0.00" waitingCount="0" stopTime="0.00" timeLoss="65.95" rerouteNo="1" devices="tripinfo_veh15 routing_veh15 emissions_veh15" vType="dieselEuroSix" speedFactor="0.93" vaporized="">
        <emissions CO_abs="261.524649" CO2_abs="2255233.855966" HC_abs="78.279281" PMx_abs="0" NOx_abs="3810.321133" fuel_abs="848.533711" electricity_abs="0"/>
    </tripinfo>
    <tripinfo id="veh37" depart="156.00" departLane="-F_0" departPos="7.20" departSpeed="0.00" departDelay="0.00" arrival="1364.00" arrivalLane="H_0" arrivalPos="1742.80" arrivalSpeed="14.34" duration="1208.00" routeLength="15742.80" waitingTime="0.00" waitingCount="0" stopTime="0.00" timeLoss="167.71" rerouteNo="1" devices="tripinfo_veh37 routing_veh37 emissions_veh37" vType="truck" speedFactor="1.09" vaporized="">
        <emissions CO_abs="15287.986841" CO2_abs="13449803.170639" HC_abs="388.400874" PMx_abs="295.913598" NOx_abs="84889.370004" fuel_abs="5060.495323" electricity_abs="0"/>
    </tripinfo>
    <tripinfo id="veh7" depart="25.00" departLane="-G_0" departPos="5.10" departSpeed="0.00" departDelay="0.00" arrival="1379.00" arrivalLane="E_0" arrivalPos="1742.80" arrivalSpeed="11.55" duration="1354.00" routeLength="15744.90" waitingTime="0.00" waitingCount="0" stopTime="0.00" timeLoss="74.52" rerouteNo="1" devices="tripinfo_veh7 routing_veh7 emissions_veh7" vType="highEmissions" speedFactor="0.89" vaporized="">
        <emissions CO_abs="37037.493504" CO2_abs="2461496.206999" HC_abs="365.442756" PMx_abs="66.956540" NOx_abs="759.573293" fuel_abs="1058.040380" electricity_abs="0"/>
    </tripinfo>
    <tripinfo id="veh12" depart="61.00" departLane="-G_0" departPos="5.10" departSpeed="0.00" departDelay="0.00" arrival="1381.00" arrivalLane="E_0" arrivalPos="1742.80" arrivalSpeed="13.72" duration="1320.00" routeLength="15744.90" waitingTime="0.00" waitingCount="0" stopTime="0.00" timeLoss="236.85" rerouteNo="1" devices="tripinfo_veh12 routing_veh12 emissions_veh12" vType="hovGasolinaEuroSix" speedFactor="1.05" vaporized="">
        <emissions CO_abs="346.741254" CO2_abs="2127307.953410" HC_abs="96.069990" PMx_abs="40.112520" NOx_abs="3495.772979" fuel_abs="800.365210" electricity_abs="0"/>
    </tripinfo>
    <tripinfo id="veh13" depart="64.00" departLane="-G_0" departPos="5.10" departSpeed="0.00" departDelay="3.00" arrival="1383.00" arrivalLane="E_0" arrivalPos="1742.80" arrivalSpeed="14.99" duration="1319.00" routeLength="15744.90" waitingTime="0.00" waitingCount="0" stopTime="0.00" timeLoss="308.70" rerouteNo="1" devices="tripinfo_veh13 routing_veh13 emissions_veh13" vType="highEmissions" speedFactor="1.12" vaporized="">
        <emissions CO_abs="66439.763533" CO2_abs="3382855.569772" HC_abs="600.823736" PMx_abs="114.829555" NOx_abs="1057.152014" fuel_abs="1454.132613" electricity_abs="0"/>
    </tripinfo>
    <tripinfo id="veh46" depart="190.00" departLane="-C_0" departPos="5.10" departSpeed="0.00" departDelay="0.00" arrival="1404.00" arrivalLane="A_0" arrivalPos="1742.80" arrivalSpeed="13.28" duration="1214.00" routeLength="15744.90" waitingTime="1.00" waitingCount="1" stopTime="0.00" timeLoss="77.03" rerouteNo="1" devices="tripinfo_veh46 routing_veh46 emissions_veh46" vType="gasolineEuroSix" speedFactor="1.00" vaporized="">
        <emissions CO_abs="49691.382518" CO2_abs="2558171.371021" HC_abs="260.025084" PMx_abs="92.548533" NOx_abs="583.404080" fuel_abs="1099.755387" electricity_abs="0"/>
    </tripinfo>
    <tripinfo id="veh47" depart="192.00" departLane="-F_0" departPos="7.20" departSpeed="0.00" departDelay="0.00" arrival="1422.00" arrivalLane="H_0" arrivalPos="1742.80" arrivalSpeed="12.72" duration="1230.00" routeLength="15742.80" waitingTime="0.00" waitingCount="0" stopTime="0.00" timeLoss="37.16" rerouteNo="1" devices="tripinfo_veh47 routing_veh47 emissions_veh47" vType="truck" speedFactor="0.95" vaporized="">
        <emissions CO_abs="13888.186313" CO2_abs="11805292.047721" HC_abs="350.791592" PMx_abs="269.274588" NOx_abs="75449.511787" fuel_abs="4441.568153" electricity_abs="0"/>
    </tripinfo>
    <tripinfo id="veh57" depart="227.00" departLane="-F_0" departPos="5.10" departSpeed="0.00" departDelay="0.00" arrival="1424.00" arrivalLane="H_0" arrivalPos="1742.80" arrivalSpeed="14.58" duration="1197.00" routeLength="15744.90" waitingTime="0.00" waitingCount="0" stopTime="0.00" timeLoss="204.52" rerouteNo="1" devices="tripinfo_veh57 routing_veh57 emissions_veh57" vType="hovGasolinaEuroSix" speedFactor="1.14" vaporized="">
        <emissions CO_abs="311.299246" CO2_abs="1881006.581935" HC_abs="89.978066" PMx_abs="29.592841" NOx_abs="2938.149697" fuel_abs="707.680727" electricity_abs="0"/>
    </tripinfo>
    <tripinfo id="veh9" depart="35.00" departLane="-E_0" departPos="5.10" departSpeed="0.00" departDelay="0.00" arrival="1437.00" arrivalLane="G_0" arrivalPos="1742.80" arrivalSpeed="10.96" duration="1402.00" routeLength="15744.90" waitingTime="0.00" waitingCount="0" stopTime="0.00" timeLoss="78.91" rerouteNo="1" devices="tripinfo_veh9 routing_veh9 emissions_veh9" vType="normalVehicle" speedFactor="0.86" vaporized="">
        <emissions CO_abs="24663.008895" CO2_abs="2437778.163695" HC_abs="167.978155" PMx_abs="31.753877" NOx_abs="914.445522" fuel_abs="1047.903822" electricity_abs="0"/>
    </tripinfo>
    <tripinfo id="veh10" depart="47.00" departLane="-E_0" departPos="5.10" departSpeed="0.00" departDelay="0.00" arrival="1439.00" arrivalLane="G_0" arrivalPos="1742.80" arrivalSpeed="14.25" duration="1392.00" routeLength="15744.90" waitingTime="0.00" waitingCount="0" stopTime="0.00" timeLoss="351.98" rerouteNo="1" devices="tripinfo_veh10 routing_veh10 emissions_veh10" vType="normalVehicle" speedFactor="1.09" vaporized="">
        <emissions CO_abs="34240.469209" CO2_abs="2937933.037692" HC_abs="224.064412" PMx_abs="44.923075" NOx_abs="1149.327062" fuel_abs="1262.893747" electricity_abs="0"/>
    </tripinfo>
    <tripinfo id="veh23" depart="94.00" departLane="-H_0" departPos="5.10" departSpeed="0.00" departDelay="2.00" arrival="1440.00" arrivalLane="F_0" arrivalPos="1742.80" arrivalSpeed="12.35" duration="1346.00" routeLength="15744.90" waitingTime="0.00" waitingCount="0" stopTime="0.00" timeLoss="71.78" rerouteNo="1" devices="tripinfo_veh23 routing_veh23 emissions_veh23" vType="eVehicle" speedFactor="0.89" vaporized="">
        <emissions CO_abs="0" CO2_abs="0" HC_abs="0" PMx_abs="0" NOx_abs="0" fuel_abs="0" electricity_abs="0"/>
    </tripinfo>
    <tripinfo id="veh18" depart="82.00" departLane="-E_0" departPos="5.10" departSpeed="0.00" departDelay="0.00" arrival="1441.00" arrivalLane="G_0" arrivalPos="1742.80" arrivalSpeed="11.95" duration="1359.00" routeLength="15744.90" waitingTime="0.00" waitingCount="0" stopTime="0.00" timeLoss="147.46" rerouteNo="1" devices="tripinfo_veh18 routing_veh18 emissions_veh18" vType="normalVehicle" speedFactor="0.94" vaporized="">
        <emissions CO_abs="32958.980645" CO2_abs="2946671.583259" HC_abs="218.497710" PMx_abs="44.848062" NOx_abs="1149.077126" fuel_abs="1266.649462" electricity_abs="0"/>
    </tripinfo>
    <tripinfo id="veh20" depart="85.00" departLane="-E_0" departPos="5.10" departSpeed="0.00" departDelay="0.00" arrival="1442.00" arrivalLane="G_0" arrivalPos="1742.80" arrivalSpeed="13.16" duration="1357.00" routeLength="15744.90" waitingTime="0.00" waitingCount="0" stopTime="0.00" timeLoss="243.56" rerouteNo="1" devices="tripinfo_veh20 routing_veh20 emissions_veh20" vType="gasolineEuroSix" speedFactor="1.02" vaporized="">
        <emissions CO_abs="84259.425449" CO2_abs="3358638.044084" HC_abs="411.452053" PMx_abs="144.228814" NOx_abs="750.432242" fuel_abs="1443.891387" electricity_abs="0"/>
    </tripinfo>
    <tripinfo id="veh38" depart="159.00" departLane="-H_0" departPos="5.10" departSpeed="0.00" departDelay="0.00" arrival="1442.00" arrivalLane="F_0" arrivalPos="1742.80" arrivalSpeed="14.07" duration="1283.00" routeLength="15744.90" waitingTime="0.00" waitingCount="0" stopTime="0.00" timeLoss="254.26" rerouteNo="1" devices="tripinfo_veh38 routing_veh38 emissions_veh38" vType="eVehicle" speedFactor="1.10" vaporized="">
        <emissions CO_abs="0" CO2_abs="0" HC_abs="0" PMx_abs="0" NOx_abs="0" fuel_abs="0" electricity_abs="0"/>
    </tripinfo>
    <tripinfo id="veh21" depart="88.00" departLane="-E_0" departPos="5.10" departSpeed="0.00" departDelay="3.00" arrival="1444.00" arrivalLane="G_0" arrivalPos="1742.80" arrivalSpeed="13.41" duration="1356.00" routeLength="15744.90" waitingTime="0.00" waitingCount="0" stopTime="0.00" timeLoss="233.54" rerouteNo="1" devices="tripinfo_veh21 routing_veh21 emissions_veh21" vType="normalVehicle" speedFactor="1.01" vaporized="">
        <emissions CO_abs="44142.860130" CO2_abs="3522101.410692" HC_abs="283.724524" PMx_abs="59.730763" NOx_abs="1418.212031" fuel_abs="1513.996565" electricity_abs="0"/>
    </tripinfo>
    <tripinfo id="veh27" depart="111.00" departLane="-E_0" departPos="7.20" departSpeed="0.00" departDelay="0.00" arrival="1446.00" arrivalLane="G_0" arrivalPos="1742.80" arrivalSpeed="12.99" duration="1335.00" routeLength="15742.80" waitingTime="0.00" waitingCount="0" stopTime="0.00" timeLoss="171.43" rerouteNo="1" devices="tripinfo_veh27 routing_veh27 emissions_veh27" vType="truck" speedFactor="0.97" vaporized="">
        <emissions CO_abs="21736.761273" CO2_abs="19517140.627747" HC_abs="552.462874" PMx_abs="426.991149" NOx_abs="122356.588003" fuel_abs="7343.688399" electricity_abs="0"/>
    </tripinfo>
    <tripinfo id="veh40" depart="163.00" departLane="-E_0" departPos="5.10" departSpeed="0.00" departDelay="0.00" arrival="1448.00" arrivalLane="G_0" arrivalPos="1742.80" arrivalSpeed="13.69" duration="1285.00" routeLength="15744.90" waitingTime="0.00" waitingCount="0" stopTime="0.00" timeLoss="184.33" rerouteNo="1" devices="tripinfo_veh40 routing_veh40 emissions_veh40" vType="hovGasolinaEuroSix" speedFactor="1.03" vaporized="">
        <emissions CO_abs="353.956902" CO2_abs="2226291.722875" HC_abs="100.210390" PMx_abs="41.412988" NOx_abs="3660.722967" fuel_abs="837.608037" electricity_abs="0"/>
    </tripinfo>
    <tripinfo id="veh42" depart="174.00" departLane="-E_0" departPos="5.10" departSpeed="0.00" departDelay="0.00" arrival="1450.00" arrivalLane="G_0" arrivalPos="1742.80" arrivalSpeed="14.65" duration="1276.00" routeLength="15744.90" waitingTime="0.00" waitingCount="0" stopTime="0.00" timeLoss="236.97" rerouteNo="1" devices="tripinfo_veh42 routing_veh42 emissions_veh42" vType="normalVehicle" speedFactor="1.09" vaporized="">
        <emissions CO_abs="38254.760942" CO2_abs="3308018.137404" HC_abs="251.524950" PMx_abs="54.997570" NOx_abs="1316.943894" fuel_abs="1421.971278" electricity_abs="0"/>
    </tripinfo>
    <tripinfo id="veh43" depart="181.00" departLane="-E_0" departPos="7.20" departSpeed="0.00" departDelay="0.00" arrival="1451.00" arrivalLane="G_0" arrivalPos="1742.80" arrivalSpeed="13.60" duration="1270.00" routeLength="15742.80" waitingTime="0.00" waitingCount="0" stopTime="0.00" timeLoss="157.54" rerouteNo="1" devices="tripinfo_veh43 routing_veh43 emissions_veh43" vType="truck" speedFactor="1.02" vaporized="">
        <emissions CO_abs="19261.734704" CO2_abs="17280472.665896" HC_abs="490.079108" PMx_abs="376.089074" NOx_abs="108342.882544" fuel_abs="6502.031300" electricity_abs="0"/>
    </tripinfo>
    <tripinfo id="veh58" depart="229.00" departLane="-E_0" departPos="5.10" departSpeed="0.00" departDelay="0.00" arrival="1453.00" arrivalLane="G_0" arrivalPos="1742.80" arrivalSpeed="12.95" duration="1224.00" routeLength="15744.90" waitingTime="0.00" waitingCount="0" stopTime="0.00" timeLoss="116.37" rerouteNo="1" devices="tripinfo_veh58 routing_veh58 emissions_veh58" vType="gasolineEuroSix" speedFactor="1.02" vaporized="">
        <emissions CO_abs="55371.453522" CO2_abs="2656872.353447" HC_abs="284.357361" PMx_abs="101.005081" NOx_abs="601.749791" fuel_abs="1142.189941" electricity_abs="0"/>
    </tripinfo>
    <tripinfo id="veh16" depart="79.00" departLane="-B_0" departPos="5.10" departSpeed="0.00" departDelay="0.00" arrival="1454.00" arrivalLane="D_0" arrivalPos="1742.80" arrivalSpeed="11.45" duration="1375.00" routeLength="15744.90" waitingTime="0.00" waitingCount="0" stopTime="0.00" timeLoss="84.24" rerouteNo="1" devices="tripinfo_veh16 routing_veh16 emissions_veh16" vType="gasolineEuroSix" speedFactor="0.88" vaporized="">
        <emissions CO_abs="51885.922661" CO2_abs="2592068.954809" HC_abs="264.216421" PMx_abs="91.311383" NOx_abs="601.212583" fuel_abs="1114.330671" electricity_abs="0"/>
    </tripinfo>
    <tripinfo id="veh63" depart="244.00" departLane="-F_0" departPos="5.10" departSpeed="0.00" departDelay="0.00" arrival="1454.00" arrivalLane="H_0" arrivalPos="1742.80" arrivalSpeed="13.43" duration="1210.00" routeLength="15744.90" waitingTime="0.00" waitingCount="0" stopTime="0.00" timeLoss="61.46" rerouteNo="1" devices="tripinfo_veh63 routing_veh63 emissions_veh63" vType="hovGasolinaEuroSix" speedFactor="0.99" vaporized="">
        <emissions CO_abs="300.940938" CO2_abs="1731343.099633" HC_abs="84.822088" PMx_abs="26.366637" NOx_abs="2657.129927" fuel_abs="651.365699" electricity_abs="0"/>
    </tripinfo>
    <tripinfo id="veh17" depart="82.00" departLane="-B_0" departPos="5.10" departSpeed="0.00" departDelay="3.00" arrival="1456.00" arrivalLane="D_0" arrivalPos="1742.80" arrivalSpeed="12.37" duration="1374.00" routeLength="15744.90" waitingTime="0.00" waitingCount="0" stopTime="0.00" timeLoss="169.16" rerouteNo="1" devices="tripinfo_veh17 routing_veh17 emissions_veh17" vType="hovGasolinaEuroSix" speedFactor="0.94" vaporized="">
        <emissions CO_abs="369.602229" CO2_abs="2208392.685548" HC_abs="99.314795" PMx_abs="43.575387" NOx_abs="3659.341392" fuel_abs="830.872381" electricity_abs="0"/>
    </tripinfo>
    <tripinfo id="veh29" depart="124.00" departLane="-B_0" departPos="5.10" departSpeed="0.00" departDelay="0.00" arrival="1458.00" arrivalLane="D_0" arrivalPos="1742.80" arrivalSpeed="12.19" duration="1334.00" routeLength="15744.90" waitingTime="10.00" waitingCount="1" stopTime="0.00" timeLoss="115.96" rerouteNo="1" devices="tripinfo_veh29 routing_veh29 emissions_veh29" vType="eVehicle" speedFactor="0.93" vaporized="">
        <emissions CO_abs="0" CO2_abs="0" HC_abs="0" PMx_abs="0" NOx_abs="0" fuel_abs="0" electricity_abs="0"/>
    </tripinfo>
    <tripinfo id="veh30" depart="134.00" departLane="-B_0" departPos="5.10" departSpeed="0.00" departDelay="0.00" arrival="1459.00" arrivalLane="D_0" arrivalPos="1742.80" arrivalSpeed="14.21" duration="1325.00" routeLength="15744.90" waitingTime="9.00" waitingCount="1" stopTime="0.00" timeLoss="362.95" rerouteNo="1" devices="tripinfo_veh30 routing_veh30 emissions_veh30" vType="normalVehicle" speedFactor="1.18" vaporized="">
        <emissions CO_abs="38053.892334" CO2_abs="3221536.467933" HC_abs="248.613999" PMx_abs="52.411196" NOx_abs="1277.278280" fuel_abs="1384.798886" electricity_abs="0"/>
    </tripinfo>
    <tripinfo id="veh33" depart="150.00" departLane="-B_0" departPos="5.10" departSpeed="0.00" departDelay="0.00" arrival="1461.00" arrivalLane="D_0" arrivalPos="1742.80" arrivalSpeed="15.21" duration="1311.00" routeLength="15744.90" waitingTime="8.00" waitingCount="1" stopTime="0.00" timeLoss="343.05" rerouteNo="1" devices="tripinfo_veh33 routing_veh33 emissions_veh33" vType="gasolineEuroSix" speedFactor="1.17" vaporized="">
        <emissions CO_abs="90100.397037" CO2_abs="3432854.423185" HC_abs="437.240800" PMx_abs="153.787399" NOx_abs="759.072089" fuel_abs="1475.798828" electricity_abs="0"/>
    </tripinfo>
    <tripinfo id="veh44" depart="182.00" departLane="-B_0" departPos="5.10" departSpeed="0.00" departDelay="0.00" arrival="1463.00" arrivalLane="D_0" arrivalPos="1742.80" arrivalSpeed="13.64" duration="1281.00" routeLength="15744.90" waitingTime="7.00" waitingCount="1" stopTime="0.00" timeLoss="193.84" rerouteNo="1" devices="tripinfo_veh44 routing_veh44 emissions_veh44" vType="eVehicle" speedFactor="1.04" vaporized="">
        <emissions CO_abs="0" CO2_abs="0" HC_abs="0" PMx_abs="0" NOx_abs="0" fuel_abs="0" electricity_abs="0"/>
    </tripinfo>
    <tripinfo id="veh53" depart="209.00" departLane="-B_0" departPos="5.10" departSpeed="0.00" departDelay="0.00" arrival="1464.00" arrivalLane="D_0" arrivalPos="1742.80" arrivalSpeed="14.98" duration="1255.00" routeLength="15744.90" waitingTime="7.00" waitingCount="1" stopTime="0.00" timeLoss="220.34" rerouteNo="1" devices="tripinfo_veh53 routing_veh53 emissions_veh53" vType="normalVehicle" speedFactor="1.10" vaporized="">
        <emissions CO_abs="37563.350001" CO2_abs="3247833.565586" HC_abs="246.804752" PMx_abs="54.258540" NOx_abs="1291.359692" fuel_abs="1396.100481" electricity_abs="0"/>
    </tripinfo>
    <tripinfo id="veh5" depart="19.00" departLane="-D_0" departPos="5.10" departSpeed="0.00" departDelay="0.00" arrival="1478.00" arrivalLane="B_0" arrivalPos="1742.80" arrivalSpeed="10.61" duration="1459.00" routeLength="15744.90" waitingTime="0.00" waitingCount="0" stopTime="0.00" timeLoss="94.21" rerouteNo="1" devices="tripinfo_veh5 routing_veh5 emissions_veh5" vType="eVehicle" speedFactor="0.83" vaporized="">
        <emissions CO_abs="0" CO2_abs="0" HC_abs="0" PMx_abs="0" NOx_abs="0" fuel_abs="0" electricity_abs="0"/>
    </tripinfo>
    <tripinfo id="veh11" depart="51.00" departLane="-D_0" departPos="5.10" departSpeed="0.00" departDelay="0.00" arrival="1479.00" arrivalLane="B_0" arrivalPos="1742.80" arrivalSpeed="13.55" duration="1428.00" routeLength="15744.90" waitingTime="0.00" waitingCount="0" stopTime="0.00" timeLoss="323.29" rerouteNo="1" devices="tripinfo_veh11 routing_veh11 emissions_veh11" vType="eVehicle" speedFactor="1.03" vaporized="">
        <emissions CO_abs="0" CO2_abs="0" HC_abs="0" PMx_abs="0" NOx_abs="0" fuel_abs="0" electricity_abs="0"/>
    </tripinfo>
    <tripinfo id="veh25" depart="108.00" departLane="-G_0" departPos="5.10" departSpeed="0.00" departDelay="0.00" arrival="1484.00" arrivalLane="E_0" arrivalPos="1742.80" arrivalSpeed="11.62" duration="1376.00" routeLength="15744.90" waitingTime="0.00" waitingCount="0" stopTime="0.00" timeLoss="76.38" rerouteNo="1" devices="tripinfo_veh25 routing_veh25 emissions_veh25" vType="eVehicle" speedFactor="0.87" vaporized="">
        <emissions CO_abs="0" CO2_abs="0" HC_abs="0" PMx_abs="0" NOx_abs="0" fuel_abs="0" electricity_abs="0"/>
    </tripinfo>
    <tripinfo id="veh26" depart="112.00" departLane="-G_0" departPos="7.20" departSpeed="0.00" departDelay="4.00" arrival="1486.00" arrivalLane="E_0" arrivalPos="1742.80" arrivalSpeed="13.09" duration="1374.00" routeLength="15742.80" waitingTime="0.00" waitingCount="0" stopTime="0.00" timeLoss="190.82" rerouteNo="1" devices="tripinfo_veh26 routing_veh26 emissions_veh26" vType="truck" speedFactor="0.96" vaporized="">
        <emissions CO_abs="18738.615694" CO2_abs="16403463.486106" HC_abs="473.933316" PMx_abs="369.488591" NOx_abs="103787.355926" fuel_abs="6171.959578" electricity_abs="0"/>
    </tripinfo>
    <tripinfo id="veh28" depart="117.00" departLane="-G_0" departPos="5.10" departSpeed="0.00" departDelay="0.00" arrival="1487.00" arrivalLane="E_0" arrivalPos="1742.80" arrivalSpeed="14.90" duration="1370.00" routeLength="15744.90" waitingTime="0.00" waitingCount="0" stopTime="0.00" timeLoss="368.35" rerouteNo="1" devices="tripinfo_veh28 routing_veh28 emissions_veh28" vType="normalVehicle" speedFactor="1.13" vaporized="">
        <emissions CO_abs="34954.295513" CO2_abs="3006416.413010" HC_abs="229.137055" PMx_abs="46.986213" NOx_abs="1182.302867" fuel_abs="1292.330288" electricity_abs="0"/>
    </tripinfo>
    <tripinfo id="veh31" depart="135.00" departLane="-G_0" departPos="5.10" departSpeed="0.00" departDelay="0.00" arrival="1489.00" arrivalLane="E_0" arrivalPos="1742.80" arrivalSpeed="15.55" duration="1354.00" routeLength="15744.90" waitingTime="0.00" waitingCount="0" stopTime="0.00" timeLoss="371.56" rerouteNo="1" devices="tripinfo_veh31 routing_veh31 emissions_veh31" vType="highEmissions" speedFactor="1.15" vaporized="">
        <emissions CO_abs="68472.464895" CO2_abs="3476507.386189" HC_abs="613.941053" PMx_abs="117.645548" NOx_abs="1096.103329" fuel_abs="1494.385036" electricity_abs="0"/>
    </tripinfo>
    <tripinfo id="veh35" depart="153.00" departLane="-G_0" departPos="5.10" departSpeed="0.00" departDelay="0.00" arrival="1491.00" arrivalLane="E_0" arrivalPos="1742.80" arrivalSpeed="14.12" duration="1338.00" routeLength="15744.90" waitingTime="0.00" waitingCount="0" stopTime="0.00" timeLoss="225.80" rerouteNo="1" devices="tripinfo_veh35 routing_veh35 emissions_veh35" vType="gasolineEuroSix" speedFactor="1.02" vaporized="">
        <emissions CO_abs="87899.480158" CO2_abs="3430167.949295" HC_abs="428.071770" PMx_abs="150.425365" NOx_abs="762.451693" fuel_abs="1474.643577" electricity_abs="0"/>
    </tripinfo>