<?xml version="1.0" encoding="UTF-8"?>

<!-- generated on 11/12/20 22:09:15 by Eclipse SUMO GUI Version 1.7.0
<configuration xmlns:xsi="http://www.w3.org/2001/XMLSchema-instance" xsi:noNamespaceSchemaLocation="http://sumo.dlr.de/xsd/sumoConfiguration.xsd">

    <input>
        <net-file value="C:\Users\Sandrus\Documents\Research\SUMO\SUMO_DEMOS\Emissions\ThreeEdges_OneCar\threeEdges_OneCar.net.xml"/>
        <route-files value="C:\Users\Sandrus\Documents\Research\SUMO\SUMO_DEMOS\Emissions\ThreeEdges_OneCar\threeEdges_Onecar.rou.xml"/>
    </input>

    <output>
        <emission-output value="C:\Users\Sandrus\Documents\Research\SUMO\SUMO_DEMOS\Emissions\ThreeEdges_OneCar\threeEdges_OneCar_emission_output.xml"/>
        <emission-output.precision value="2"/>
        <battery-output value="C:\Users\Sandrus\Documents\Research\SUMO\SUMO_DEMOS\Emissions\ThreeEdges_OneCar\threeEdges_OneCar_battery_output.xml"/>
        <elechybrid-output value="C:\Users\Sandrus\Documents\Research\SUMO\SUMO_DEMOS\Emissions\ThreeEdges_OneCar\threeEdges_OneCar_elechybrid.xml"/>
        <chargingstations-output value="C:\Users\Sandrus\Documents\Research\SUMO\SUMO_DEMOS\Emissions\ThreeEdges_OneCar\threeEdges_OneCar_chargingstations.xml"/>
        <substations-output value="C:\Users\Sandrus\Documents\Research\SUMO\SUMO_DEMOS\Emissions\ThreeEdges_OneCar\threeEdges_OneCar_substations.xml"/>
        <fcd-output value="C:\Users\Sandrus\Documents\Research\SUMO\SUMO_DEMOS\Emissions\ThreeEdges_OneCar\threeEdges_OneCar.fcd.xml"/>
        <tripinfo-output value="C:\Users\Sandrus\Documents\Research\SUMO\SUMO_DEMOS\Emissions\ThreeEdges_OneCar\threeEdges_OneCar_info.xml"/>
    </output>

    <emissions>
        <device.emissions.probability value="1"/>
    </emissions>

    <battery>
        <device.battery.probability value="1"/>
    </battery>

</configuration>
-->

<emission-export xmlns:xsi="http://www.w3.org/2001/XMLSchema-instance" xsi:noNamespaceSchemaLocation="http://sumo.dlr.de/xsd/emission_file.xsd">
    <timestep time="0.00">
        <vehicle id="vehicle_0" eclass="HBEFA3/PC_G_EU4" CO2="2624.72" CO="164.78" HC="0.81" NOx="1.20" PMx="0.07" fuel="1.13" electricity="0.00" noise="55.94" route="!vehicle_0" type="CarType" waiting="0.00" lane="edge1_0" pos="5.10" speed="0.00" angle="90.00" x="-290.17" y="-176.46"/>
        <vehicle id="vehicle_1" eclass="HBEFA3/PC_G_EU4" CO2="2624.72" CO="164.78" HC="0.81" NOx="1.20" PMx="0.07" fuel="1.13" electricity="0.00" noise="55.94" route="route_1" type="CarType" waiting="0.00" lane="-edge2_0" pos="5.10" speed="0.00" angle="101.35" x="-255.24" y="-68.43"/>
    </timestep>
    <timestep time="1.00">
        <vehicle id="vehicle_0" eclass="HBEFA3/PC_G_EU4" CO2="3467.50" CO="147.97" HC="0.76" NOx="1.55" PMx="0.08" fuel="1.49" electricity="0.00" noise="65.65" route="!vehicle_0" type="CarType" waiting="0.00" lane="edge1_0" pos="7.13" speed="2.03" angle="90.00" x="-288.14" y="-176.46"/>
        <vehicle id="vehicle_1" eclass="HBEFA3/PC_G_EU4" CO2="3791.44" CO="149.72" HC="0.77" NOx="1.69" PMx="0.08" fuel="1.63" electricity="0.00" noise="67.14" route="route_1" type="CarType" waiting="0.00" lane="-edge2_0" pos="7.44" speed="2.34" angle="101.35" x="-252.95" y="-68.89"/>
    </timestep>
    <timestep time="2.00">
        <vehicle id="vehicle_0" eclass="HBEFA3/PC_G_EU4" CO2="4262.08" CO="134.70" HC="0.71" NOx="1.87" PMx="0.09" fuel="1.83" electricity="0.00" noise="66.13" route="!vehicle_0" type="CarType" waiting="0.00" lane="edge1_0" pos="11.11" speed="3.98" angle="90.00" x="-284.16" y="-176.46"/>
        <vehicle id="vehicle_1" eclass="HBEFA3/PC_G_EU4" CO2="3667.22" CO="125.37" HC="0.66" NOx="1.59" PMx="0.07" fuel="1.58" electricity="0.00" noise="63.80" route="route_1" type="CarType" waiting="0.00" lane="-edge2_0" pos="11.22" speed="3.78" angle="101.35" x="-249.24" y="-69.64"/>
    </timestep>
    <timestep time="3.00">
        <vehicle id="vehicle_0" eclass="HBEFA3/PC_G_EU4" CO2="6476.12" CO="146.31" HC="0.82" NOx="2.84" PMx="0.14" fuel="2.78" electricity="0.00" noise="69.87" route="!vehicle_0" type="CarType" waiting="0.00" lane="edge1_0" pos="17.66" speed="6.54" angle="90.00" x="-277.61" y="-176.46"/>
        <vehicle id="vehicle_1" eclass="HBEFA3/PC_G_EU4" CO2="6104.25" CO="142.47" HC="0.79" NOx="2.68" PMx="0.13" fuel="2.62" electricity="0.00" noise="69.27" route="route_1" type="CarType" waiting="0.00" lane="-edge2_0" pos="17.45" speed="6.23" angle="101.35" x="-243.13" y="-70.87"/>
        <vehicle id="vehicle_electric" eclass="Energy/default" CO2="0.00" CO="0.00" HC="0.00" NOx="0.00" PMx="0.00" fuel="0.00" electricity="0.03" noise="55.94" route="route_1" type="electricCar" waiting="0.00" lane="-edge2_0" pos="5.10" speed="0.00" angle="101.35" x="-255.24" y="-68.43"/>
    </timestep>
    <timestep time="4.00">
        <vehicle id="vehicle_0" eclass="HBEFA3/PC_G_EU4" CO2="5812.22" CO="112.80" HC="0.65" NOx="2.49" PMx="0.11" fuel="2.50" electricity="0.00" noise="67.13" route="!vehicle_0" type="CarType" waiting="0.00" lane="edge1_0" pos="25.93" speed="8.27" angle="90.00" x="-269.34" y="-176.46"/>
        <vehicle id="vehicle_1" eclass="HBEFA3/PC_G_EU4" CO2="6014.93" CO="118.88" HC="0.68" NOx="2.59" PMx="0.12" fuel="2.59" electricity="0.00" noise="67.60" route="route_1" type="CarType" waiting="0.00" lane="-edge2_0" pos="25.55" speed="8.09" angle="101.35" x="-235.19" y="-72.46"/>
        <vehicle id="vehicle_electric" eclass="Energy/default" CO2="0.00" CO="0.00" HC="0.00" NOx="0.00" PMx="0.00" fuel="0.00" electricity="0.93" noise="66.95" route="route_1" type="electricCar" waiting="0.00" lane="-edge2_0" pos="7.40" speed="2.30" angle="101.35" x="-252.98" y="-68.89"/>
    </timestep>
    <timestep time="5.00">
        <vehicle id="vehicle_0" eclass="HBEFA3/PC_G_EU4" CO2="5699.93" CO="96.01" HC="0.57" NOx="2.40" PMx="0.11" fuel="2.45" electricity="0.00" noise="66.61" route="!vehicle_0" type="CarType" waiting="0.00" lane="edge1_0" pos="35.62" speed="9.69" angle="90.00" x="-259.65" y="-176.46"/>
        <vehicle id="vehicle_1" eclass="HBEFA3/PC_G_EU4" CO2="7692.75" CO="132.37" HC="0.79" NOx="3.32" PMx="0.16" fuel="3.31" electricity="0.00" noise="69.61" route="route_1" type="CarType" waiting="0.00" lane="-edge2_0" pos="35.74" speed="10.19" angle="101.35" x="-225.20" y="-74.46"/>
        <vehicle id="vehicle_electric" eclass="Energy/default" CO2="0.00" CO="0.00" HC="0.00" NOx="0.00" PMx="0.00" fuel="0.00" electricity="1.51" noise="63.76" route="route_1" type="electricCar" waiting="0.00" lane="-edge2_0" pos="11.14" speed="3.74" angle="101.35" x="-249.32" y="-69.62"/>
    </timestep>
    <timestep time="6.00">
        <vehicle id="vehicle_0" eclass="HBEFA3/PC_G_EU4" CO2="7145.23" CO="110.86" HC="0.68" NOx="3.04" PMx="0.14" fuel="3.07" electricity="0.00" noise="68.51" route="!vehicle_0" type="CarType" waiting="0.00" lane="edge1_0" pos="46.99" speed="11.37" angle="90.00" x="-248.28" y="-176.46"/>
        <vehicle id="vehicle_1" eclass="HBEFA3/PC_G_EU4" CO2="7694.59" CO="117.55" HC="0.72" NOx="3.28" PMx="0.15" fuel="3.31" electricity="0.00" noise="69.15" route="route_1" type="CarType" waiting="0.00" lane="-edge2_0" pos="47.70" speed="11.96" angle="101.35" x="-213.47" y="-76.82"/>
        <vehicle id="vehicle_electric" eclass="Energy/default" CO2="0.00" CO="0.00" HC="0.00" NOx="0.00" PMx="0.00" fuel="0.00" electricity="2.31" noise="64.59" route="route_1" type="electricCar" waiting="0.00" lane="-edge2_0" pos="16.35" speed="5.21" angle="101.35" x="-244.21" y="-70.65"/>
        <vehicle id="vehicle_zeroEmissions" eclass="HBEFA3/PC_G_EU4" CO2="2624.72" CO="164.78" HC="0.81" NOx="1.20" PMx="0.07" fuel="1.13" electricity="0.00" noise="55.94" route="route_1" type="electricCarZeroEmissions" waiting="0.00" lane="-edge2_0" pos="5.10" speed="0.00" angle="101.35" x="-255.24" y="-68.43"/>
    </timestep>
    <timestep time="7.00">
        <vehicle id="vehicle_0" eclass="HBEFA3/PC_G_EU4" CO2="7908.01" CO="114.15" HC="0.71" NOx="3.35" PMx="0.16" fuel="3.40" electricity="0.00" noise="69.30" route="!vehicle_0" type="CarType" waiting="0.00" lane="edge1_0" pos="60.03" speed="13.03" angle="90.00" x="-235.24" y="-176.46"/>
        <vehicle id="vehicle_1" eclass="HBEFA3/PC_G_EU4" CO2="7505.47" CO="103.16" HC="0.65" NOx="3.15" PMx="0.15" fuel="3.23" electricity="0.00" noise="68.87" route="route_1" type="CarType" waiting="0.00" lane="-edge2_0" pos="61.14" speed="13.44" angle="101.35" x="-200.29" y="-79.46"/>
        <vehicle id="vehicle_electric" eclass="Energy/default" CO2="0.00" CO="0.00" HC="0.00" NOx="0.00" PMx="0.00" fuel="0.00" electricity="3.28" noise="65.67" route="route_1" type="electricCar" waiting="0.00" lane="-edge2_0" pos="23.12" speed="6.77" angle="101.35" x="-237.57" y="-71.98"/>
        <vehicle id="vehicle_zeroEmissions" eclass="HBEFA3/PC_G_EU4" CO2="3864.95" CO="150.23" HC="0.78" NOx="1.72" PMx="0.09" fuel="1.66" electricity="0.00" noise="67.44" route="route_1" type="electricCarZeroEmissions" waiting="0.00" lane="-edge2_0" pos="7.50" speed="2.40" angle="101.35" x="-252.88" y="-68.91"/>
    </timestep>
    <timestep time="8.00">
        <vehicle id="vehicle_0" eclass="HBEFA3/PC_G_EU4" CO2="5192.77" CO="53.12" HC="0.36" NOx="2.05" PMx="0.09" fuel="2.23" electricity="0.00" noise="66.70" route="!vehicle_0" type="CarType" waiting="0.00" lane="edge1_0" pos="73.85" speed="13.83" angle="90.00" x="-221.42" y="-176.46"/>
        <vehicle id="vehicle_1" eclass="HBEFA3/PC_G_EU4" CO2="5482.84" CO="56.42" HC="0.39" NOx="2.18" PMx="0.09" fuel="2.36" electricity="0.00" noise="67.11" route="route_1" type="CarType" waiting="0.00" lane="-edge2_0" pos="75.42" speed="14.28" angle="101.35" x="-186.29" y="-82.27"/>
        <vehicle id="vehicle_electric" eclass="Energy/default" CO2="0.00" CO="0.00" HC="0.00" NOx="0.00" PMx="0.00" fuel="0.00" electricity="5.56" noise="68.66" route="route_1" type="electricCar" waiting="0.00" lane="-edge2_0" pos="31.92" speed="8.80" angle="101.35" x="-228.94" y="-73.71"/>
        <vehicle id="vehicle_zeroEmissions" eclass="HBEFA3/PC_G_EU4" CO2="4152.58" CO="129.67" HC="0.69" NOx="1.81" PMx="0.09" fuel="1.79" electricity="0.00" noise="65.43" route="route_1" type="electricCarZeroEmissions" waiting="0.00" lane="-edge2_0" pos="11.68" speed="4.18" angle="101.35" x="-248.79" y="-69.73"/>
    </timestep>
    <timestep time="9.00">
        <vehicle id="vehicle_0" eclass="HBEFA3/PC_G_EU4" CO2="3697.63" CO="20.19" HC="0.18" NOx="1.34" PMx="0.05" fuel="1.59" electricity="0.00" noise="65.67" route="!vehicle_0" type="CarType" waiting="0.00" lane="edge1_0" pos="88.04" speed="14.19" angle="90.00" x="-207.23" y="-176.46"/>
        <vehicle id="vehicle_1" eclass="HBEFA3/PC_G_EU4" CO2="3943.52" CO="22.50" HC="0.19" NOx="1.44" PMx="0.05" fuel="1.70" electricity="0.00" noise="66.09" route="route_1" type="CarType" waiting="0.00" lane="-edge2_0" pos="90.10" speed="14.68" angle="101.35" x="-171.90" y="-85.16"/>
        <vehicle id="vehicle_electric" eclass="Energy/default" CO2="0.00" CO="0.00" HC="0.00" NOx="0.00" PMx="0.00" fuel="0.00" electricity="5.74" noise="67.72" route="route_1" type="electricCar" waiting="0.00" lane="-edge2_0" pos="42.33" speed="10.41" angle="101.35" x="-218.74" y="-75.76"/>
        <vehicle id="vehicle_zeroEmissions" eclass="HBEFA3/PC_G_EU4" CO2="4863.84" CO="120.59" HC="0.66" NOx="2.10" PMx="0.10" fuel="2.09" electricity="0.00" noise="66.17" route="route_1" type="electricCarZeroEmissions" waiting="0.00" lane="-edge2_0" pos="17.63" speed="5.94" angle="101.35" x="-242.96" y="-70.90"/>
    </timestep>
    <timestep time="10.00">
        <vehicle id="vehicle_0" eclass="HBEFA3/PC_G_EU4" CO2="3798.56" CO="20.18" HC="0.18" NOx="1.38" PMx="0.05" fuel="1.63" electricity="0.00" noise="65.93" route="!vehicle_0" type="CarType" waiting="0.00" lane="edge1_0" pos="102.60" speed="14.56" angle="90.00" x="-192.67" y="-176.46"/>
        <vehicle id="vehicle_1" eclass="HBEFA3/PC_G_EU4" CO2="0.00" CO="0.00" HC="0.00" NOx="0.00" PMx="0.00" fuel="0.00" electricity="0.00" noise="63.94" route="route_1" type="CarType" waiting="0.00" lane="-edge2_0" pos="104.34" speed="14.25" angle="101.35" x="-157.93" y="-87.97"/>
        <vehicle id="vehicle_electric" eclass="Energy/default" CO2="0.00" CO="0.00" HC="0.00" NOx="0.00" PMx="0.00" fuel="0.00" electricity="6.95" noise="68.59" route="route_1" type="electricCar" waiting="0.00" lane="-edge2_0" pos="54.35" speed="12.02" angle="101.35" x="-206.95" y="-78.13"/>
        <vehicle id="vehicle_zeroEmissions" eclass="HBEFA3/PC_G_EU4" CO2="6120.89" CO="123.19" HC="0.71" NOx="2.64" PMx="0.12" fuel="2.63" electricity="0.00" noise="67.91" route="route_1" type="electricCarZeroEmissions" waiting="0.00" lane="-edge2_0" pos="25.53" speed="7.90" angle="101.35" x="-235.21" y="-72.45"/>
    </timestep>
    <timestep time="11.00">
        <vehicle id="vehicle_0" eclass="HBEFA3/PC_G_EU4" CO2="0.00" CO="0.00" HC="0.00" NOx="0.00" PMx="0.00" fuel="0.00" electricity="0.00" noise="63.09" route="!vehicle_0" type="CarType" waiting="0.00" lane="edge1_0" pos="116.41" speed="13.81" angle="90.00" x="-178.86" y="-176.46"/>
        <vehicle id="vehicle_1" eclass="HBEFA3/PC_G_EU4" CO2="0.00" CO="0.00" HC="0.00" NOx="0.00" PMx="0.00" fuel="0.00" electricity="0.00" noise="62.73" route="route_1" type="CarType" waiting="0.00" lane="-edge2_0" pos="117.80" speed="13.46" angle="101.35" x="-144.74" y="-90.61"/>
        <vehicle id="vehicle_electric" eclass="Energy/default" CO2="0.00" CO="0.00" HC="0.00" NOx="0.00" PMx="0.00" fuel="0.00" electricity="0.75" noise="62.73" route="route_1" type="electricCar" waiting="0.00" lane="-edge2_0" pos="66.21" speed="11.86" angle="101.35" x="-195.32" y="-80.46"/>
        <vehicle id="vehicle_zeroEmissions" eclass="HBEFA3/PC_G_EU4" CO2="6039.78" CO="104.95" HC="0.62" NOx="2.56" PMx="0.12" fuel="2.60" electricity="0.00" noise="67.19" route="route_1" type="electricCarZeroEmissions" waiting="0.00" lane="-edge2_0" pos="35.02" speed="9.49" angle="101.35" x="-225.90" y="-74.32"/>
    </timestep>
    <timestep time="12.00">
        <vehicle id="vehicle_0" eclass="HBEFA3/PC_G_EU4" CO2="4822.71" CO="41.82" HC="0.30" NOx="1.86" PMx="0.08" fuel="2.07" electricity="0.00" noise="66.64" route="!vehicle_0" type="CarType" waiting="0.00" lane="edge1_0" pos="130.87" speed="14.46" angle="90.00" x="-164.40" y="-176.46"/>
        <vehicle id="vehicle_1" eclass="HBEFA3/PC_G_EU4" CO2="4986.85" CO="46.86" HC="0.33" NOx="1.95" PMx="0.08" fuel="2.14" electricity="0.00" noise="66.65" route="route_1" type="CarType" waiting="0.00" lane="-edge2_0" pos="131.97" speed="14.17" angle="101.35" x="-130.85" y="-93.40"/>
        <vehicle id="vehicle_electric" eclass="Energy/default" CO2="0.00" CO="0.00" HC="0.00" NOx="0.00" PMx="0.00" fuel="0.00" electricity="3.52" noise="65.06" route="route_1" type="electricCar" waiting="0.00" lane="-edge2_0" pos="78.62" speed="12.41" angle="101.35" x="-183.15" y="-82.90"/>
        <vehicle id="vehicle_zeroEmissions" eclass="HBEFA3/PC_G_EU4" CO2="8578.13" CO="138.46" HC="0.84" NOx="3.71" PMx="0.18" fuel="3.69" electricity="0.00" noise="70.38" route="route_1" type="electricCarZeroEmissions" waiting="0.00" lane="-edge2_0" pos="46.63" speed="11.61" angle="101.35" x="-214.52" y="-76.61"/>
    </timestep>
    <timestep time="13.00">
        <vehicle id="vehicle_0" eclass="HBEFA3/PC_G_EU4" CO2="0.00" CO="0.00" HC="0.00" NOx="0.00" PMx="0.00" fuel="0.00" electricity="0.00" noise="64.22" route="!vehicle_0" type="CarType" waiting="0.00" lane="edge1_0" pos="145.06" speed="14.19" angle="90.00" x="-150.21" y="-176.46"/>
        <vehicle id="vehicle_1" eclass="HBEFA3/PC_G_EU4" CO2="0.00" CO="0.00" HC="0.00" NOx="0.00" PMx="0.00" fuel="0.00" electricity="0.00" noise="64.62" route="route_1" type="CarType" waiting="0.00" lane="-edge2_0" pos="146.09" speed="14.12" angle="101.35" x="-117.01" y="-96.18"/>
        <vehicle id="vehicle_electric" eclass="Energy/default" CO2="0.00" CO="0.00" HC="0.00" NOx="0.00" PMx="0.00" fuel="0.00" electricity="-0.50" noise="61.89" route="route_1" type="electricCar" waiting="0.00" lane="-edge2_0" pos="90.50" speed="11.87" angle="101.35" x="-171.51" y="-85.24"/>
        <vehicle id="vehicle_zeroEmissions" eclass="HBEFA3/PC_G_EU4" CO2="9540.54" CO="143.80" HC="0.89" NOx="4.11" PMx="0.20" fuel="4.10" electricity="0.00" noise="71.06" route="route_1" type="electricCarZeroEmissions" waiting="0.00" lane="-edge2_0" pos="60.27" speed="13.64" angle="101.35" x="-201.15" y="-79.29"/>
    </timestep>
    <timestep time="14.00">
        <vehicle id="vehicle_0" eclass="HBEFA3/PC_G_EU4" CO2="0.00" CO="0.00" HC="0.00" NOx="0.00" PMx="0.00" fuel="0.00" electricity="0.00" noise="63.87" route="!vehicle_0" type="CarType" waiting="0.00" lane="edge1_0" pos="158.93" speed="13.87" angle="90.00" x="-136.34" y="-176.46"/>
        <vehicle id="vehicle_1" eclass="HBEFA3/PC_G_EU4" CO2="0.00" CO="0.00" HC="0.00" NOx="0.00" PMx="0.00" fuel="0.00" electricity="0.00" noise="64.62" route="route_1" type="CarType" waiting="0.00" lane="-edge2_0" pos="160.17" speed="14.08" angle="101.35" x="-103.20" y="-98.95"/>
        <vehicle id="vehicle_electric" eclass="Energy/default" CO2="0.00" CO="0.00" HC="0.00" NOx="0.00" PMx="0.00" fuel="0.00" electricity="1.15" noise="62.99" route="route_1" type="electricCar" waiting="0.00" lane="-edge2_0" pos="102.33" speed="11.83" angle="101.35" x="-159.91" y="-87.57"/>
        <vehicle id="vehicle_zeroEmissions" eclass="HBEFA3/PC_G_EU4" CO2="0.00" CO="0.00" HC="0.00" NOx="0.00" PMx="0.00" fuel="0.00" electricity="0.00" noise="63.78" route="route_1" type="electricCarZeroEmissions" waiting="0.00" lane="-edge2_0" pos="73.70" speed="13.44" angle="101.35" x="-187.98" y="-81.93"/>
    </timestep>
    <timestep time="15.00">
        <vehicle id="vehicle_0" eclass="HBEFA3/PC_G_EU4" CO2="3556.89" CO="17.24" HC="0.16" NOx="1.27" PMx="0.04" fuel="1.53" electricity="0.00" noise="65.57" route="!vehicle_0" type="CarType" waiting="0.00" lane="edge1_0" pos="173.13" speed="14.20" angle="90.00" x="-122.14" y="-176.46"/>
        <vehicle id="vehicle_1" eclass="HBEFA3/PC_G_EU4" CO2="4574.13" CO="35.63" HC="0.27" NOx="1.74" PMx="0.07" fuel="1.97" electricity="0.00" noise="66.53" route="route_1" type="CarType" waiting="0.00" lane="-edge2_0" pos="174.82" speed="14.65" angle="101.35" x="-88.83" y="-101.84"/>
        <vehicle id="vehicle_electric" eclass="Energy/default" CO2="0.00" CO="0.00" HC="0.00" NOx="0.00" PMx="0.00" fuel="0.00" electricity="5.56" noise="66.94" route="route_1" type="electricCar" waiting="0.00" lane="-edge2_0" pos="115.19" speed="12.87" angle="101.35" x="-147.30" y="-90.10"/>
        <vehicle id="vehicle_zeroEmissions" eclass="HBEFA3/PC_G_EU4" CO2="0.00" CO="0.00" HC="0.00" NOx="0.00" PMx="0.00" fuel="0.00" electricity="0.00" noise="63.79" route="route_1" type="electricCarZeroEmissions" waiting="0.00" lane="-edge2_0" pos="86.99" speed="13.28" angle="101.35" x="-174.95" y="-84.55"/>
    </timestep>
    <timestep time="16.00">
        <vehicle id="vehicle_0" eclass="HBEFA3/PC_G_EU4" CO2="0.00" CO="0.00" HC="0.00" NOx="0.00" PMx="0.00" fuel="0.00" electricity="0.00" noise="64.31" route="!vehicle_0" type="CarType" waiting="0.00" lane="edge1_0" pos="187.16" speed="14.03" angle="90.00" x="-108.11" y="-176.46"/>
        <vehicle id="vehicle_1" eclass="HBEFA3/PC_G_EU4" CO2="0.00" CO="0.00" HC="0.00" NOx="0.00" PMx="0.00" fuel="0.00" electricity="0.00" noise="62.84" route="route_1" type="CarType" waiting="0.00" lane="-edge2_0" pos="188.59" speed="13.76" angle="101.35" x="-75.34" y="-104.54"/>
        <vehicle id="vehicle_electric" eclass="Energy/default" CO2="0.00" CO="0.00" HC="0.00" NOx="0.00" PMx="0.00" fuel="0.00" electricity="1.57" noise="63.82" route="route_1" type="electricCar" waiting="0.00" lane="-edge2_0" pos="128.05" speed="12.86" angle="101.35" x="-134.69" y="-92.63"/>
        <vehicle id="vehicle_zeroEmissions" eclass="HBEFA3/PC_G_EU4" CO2="0.00" CO="0.00" HC="0.00" NOx="0.00" PMx="0.00" fuel="0.00" electricity="0.00" noise="63.00" route="route_1" type="electricCarZeroEmissions" waiting="0.00" lane="-edge2_0" pos="99.88" speed="12.90" angle="101.35" x="-162.31" y="-87.09"/>
    </timestep>
    <timestep time="17.00">
        <vehicle id="vehicle_0" eclass="HBEFA3/PC_G_EU4" CO2="0.00" CO="0.00" HC="0.00" NOx="0.00" PMx="0.00" fuel="0.00" electricity="0.00" noise="64.16" route="!vehicle_0" type="CarType" waiting="0.00" lane="edge1_0" pos="201.02" speed="13.86" angle="90.00" x="-94.25" y="-176.46"/>
        <vehicle id="vehicle_1" eclass="HBEFA3/PC_G_EU4" CO2="0.00" CO="0.00" HC="0.00" NOx="0.00" PMx="0.00" fuel="0.00" electricity="0.00" noise="63.58" route="route_1" type="CarType" waiting="0.00" lane="-edge2_0" pos="202.04" speed="13.45" angle="101.35" x="-62.15" y="-107.19"/>
        <vehicle id="vehicle_electric" eclass="Energy/default" CO2="0.00" CO="0.00" HC="0.00" NOx="0.00" PMx="0.00" fuel="0.00" electricity="-1.44" noise="61.36" route="route_1" type="electricCar" waiting="0.00" lane="-edge2_0" pos="140.03" speed="11.98" angle="101.35" x="-122.94" y="-94.99"/>
        <vehicle id="vehicle_zeroEmissions" eclass="HBEFA3/PC_G_EU4" CO2="2604.96" CO="5.21" HC="0.08" NOx="0.85" PMx="0.02" fuel="1.12" electricity="0.00" noise="64.19" route="route_1" type="electricCarZeroEmissions" waiting="0.00" lane="-edge2_0" pos="112.88" speed="13.00" angle="101.35" x="-149.56" y="-89.65"/>
    </timestep>
    <timestep time="18.00">
        <vehicle id="vehicle_0" eclass="HBEFA3/PC_G_EU4" CO2="6902.04" CO="81.72" HC="0.54" NOx="2.83" PMx="0.13" fuel="2.97" electricity="0.00" noise="68.51" route="!vehicle_0" type="CarType" waiting="0.00" lane="edge1_0" pos="216.02" speed="15.00" angle="90.00" x="-79.25" y="-176.46"/>
        <vehicle id="vehicle_1" eclass="HBEFA3/PC_G_EU4" CO2="4466.64" CO="36.94" HC="0.27" NOx="1.70" PMx="0.07" fuel="1.92" electricity="0.00" noise="66.18" route="route_1" type="CarType" waiting="0.00" lane="-edge2_0" pos="216.07" speed="14.03" angle="101.35" x="-48.39" y="-109.95"/>
        <vehicle id="vehicle_electric" eclass="Energy/default" CO2="0.00" CO="0.00" HC="0.00" NOx="0.00" PMx="0.00" fuel="0.00" electricity="0.88" noise="62.82" route="route_1" type="electricCar" waiting="0.00" lane="-edge2_0" pos="151.90" speed="11.86" angle="101.35" x="-111.31" y="-97.32"/>
        <vehicle id="vehicle_zeroEmissions" eclass="HBEFA3/PC_G_EU4" CO2="3405.88" CO="19.55" HC="0.17" NOx="1.22" PMx="0.04" fuel="1.46" electricity="0.00" noise="64.99" route="route_1" type="electricCarZeroEmissions" waiting="0.00" lane="-edge2_0" pos="126.20" speed="13.32" angle="101.35" x="-136.51" y="-92.27"/>
    </timestep>
    <timestep time="19.00">
        <vehicle id="vehicle_0" eclass="HBEFA3/PC_G_EU4" CO2="0.00" CO="0.00" HC="0.00" NOx="0.00" PMx="0.00" fuel="0.00" electricity="0.00" noise="63.20" route="!vehicle_0" type="CarType" waiting="0.00" lane="edge1_0" pos="230.17" speed="14.15" angle="90.00" x="-65.10" y="-176.46"/>
        <vehicle id="vehicle_1" eclass="HBEFA3/PC_G_EU4" CO2="0.00" CO="0.00" HC="0.00" NOx="0.00" PMx="0.00" fuel="0.00" electricity="0.00" noise="63.29" route="route_1" type="CarType" waiting="0.00" lane="-edge2_0" pos="229.61" speed="13.54" angle="101.35" x="-35.11" y="-112.62"/>
        <vehicle id="vehicle_electric" eclass="Energy/default" CO2="0.00" CO="0.00" HC="0.00" NOx="0.00" PMx="0.00" fuel="0.00" electricity="4.13" noise="65.61" route="route_1" type="electricCar" waiting="0.00" lane="-edge2_0" pos="164.45" speed="12.55" angle="101.35" x="-99.00" y="-99.79"/>
        <vehicle id="vehicle_zeroEmissions" eclass="HBEFA3/PC_G_EU4" CO2="0.00" CO="0.00" HC="0.00" NOx="0.00" PMx="0.00" fuel="0.00" electricity="0.00" noise="62.28" route="route_1" type="electricCarZeroEmissions" waiting="0.00" lane="-edge2_0" pos="138.85" speed="12.65" angle="101.35" x="-124.10" y="-94.76"/>
    </timestep>
    <timestep time="20.00">
        <vehicle id="vehicle_0" eclass="HBEFA3/PC_G_EU4" CO2="5823.49" CO="59.46" HC="0.41" NOx="2.32" PMx="0.10" fuel="2.50" electricity="0.00" noise="67.63" route="!vehicle_0" type="CarType" waiting="0.00" lane="edge1_0" pos="245.18" speed="15.01" angle="90.00" x="-50.09" y="-176.46"/>
        <vehicle id="vehicle_1" eclass="HBEFA3/PC_G_EU4" CO2="6069.44" CO="67.20" HC="0.45" NOx="2.45" PMx="0.11" fuel="2.61" electricity="0.00" noise="67.67" route="route_1" type="CarType" waiting="0.00" lane="-edge2_0" pos="244.12" speed="14.51" angle="101.35" x="-20.89" y="-115.47"/>
        <vehicle id="vehicle_electric" eclass="Energy/default" CO2="0.00" CO="0.00" HC="0.00" NOx="0.00" PMx="0.00" fuel="0.00" electricity="3.28" noise="65.03" route="route_1" type="electricCar" waiting="0.00" lane="-edge2_0" pos="177.42" speed="12.97" angle="101.35" x="-86.28" y="-102.35"/>
        <vehicle id="vehicle_zeroEmissions" eclass="HBEFA3/PC_G_EU4" CO2="6873.44" CO="87.25" HC="0.56" NOx="2.84" PMx="0.13" fuel="2.95" electricity="0.00" noise="68.27" route="route_1" type="electricCarZeroEmissions" waiting="0.00" lane="-edge2_0" pos="152.76" speed="13.91" angle="101.35" x="-110.46" y="-97.49"/>
    </timestep>
    <timestep time="21.00">
        <vehicle id="vehicle_0" eclass="HBEFA3/PC_G_EU4" CO2="0.00" CO="0.00" HC="0.00" NOx="0.00" PMx="0.00" fuel="0.00" electricity="0.00" noise="64.14" route="!vehicle_0" type="CarType" waiting="0.00" lane="edge1_0" pos="259.74" speed="14.56" angle="90.00" x="-35.53" y="-176.46"/>
        <vehicle id="vehicle_1" eclass="HBEFA3/PC_G_EU4" CO2="0.00" CO="0.00" HC="0.00" NOx="0.00" PMx="0.00" fuel="0.00" electricity="0.00" noise="64.49" route="route_1" type="CarType" waiting="0.00" lane="-edge2_0" pos="258.45" speed="14.33" angle="101.35" x="-6.84" y="-118.29"/>
        <vehicle id="vehicle_electric" eclass="Energy/default" CO2="0.00" CO="0.00" HC="0.00" NOx="0.00" PMx="0.00" fuel="0.00" electricity="-1.22" noise="61.65" route="route_1" type="electricCar" waiting="0.00" lane="-edge2_0" pos="189.59" speed="12.17" angle="101.35" x="-74.35" y="-104.74"/>
        <vehicle id="vehicle_zeroEmissions" eclass="HBEFA3/PC_G_EU4" CO2="0.00" CO="0.00" HC="0.00" NOx="0.00" PMx="0.00" fuel="0.00" electricity="0.00" noise="62.35" route="route_1" type="electricCarZeroEmissions" waiting="0.00" lane="-edge2_0" pos="165.83" speed="13.07" angle="101.35" x="-97.65" y="-100.07"/>
    </timestep>
    <timestep time="22.00">
        <vehicle id="vehicle_0" eclass="HBEFA3/PC_G_EU4" CO2="0.00" CO="0.00" HC="0.00" NOx="0.00" PMx="0.00" fuel="0.00" electricity="0.00" noise="65.02" route="!vehicle_0" type="CarType" waiting="0.00" lane="edge1_0" pos="274.29" speed="14.56" angle="90.00" x="-20.98" y="-176.46"/>
        <vehicle id="vehicle_1" eclass="HBEFA3/PC_G_EU4" CO2="3318.54" CO="10.22" HC="0.12" NOx="1.15" PMx="0.04" fuel="1.43" electricity="0.00" noise="65.61" route="route_1" type="CarType" waiting="0.00" lane="-edge2_0" pos="273.02" speed="14.57" angle="101.35" x="7.45" y="-121.16"/>
        <vehicle id="vehicle_electric" eclass="Energy/default" CO2="0.00" CO="0.00" HC="0.00" NOx="0.00" PMx="0.00" fuel="0.00" electricity="3.73" noise="65.31" route="route_1" type="electricCar" waiting="0.00" lane="-edge2_0" pos="202.33" speed="12.73" angle="101.35" x="-61.86" y="-107.25"/>
        <vehicle id="vehicle_zeroEmissions" eclass="HBEFA3/PC_G_EU4" CO2="2306.28" CO="0.00" HC="0.04" NOx="0.71" PMx="0.01" fuel="0.99" electricity="0.00" noise="64.02" route="route_1" type="electricCarZeroEmissions" waiting="0.00" lane="-edge2_0" pos="178.91" speed="13.08" angle="101.35" x="-84.82" y="-102.64"/>
    </timestep>
    <timestep time="23.00">
        <vehicle id="vehicle_0" eclass="HBEFA3/PC_G_EU4" CO2="2828.83" CO="0.00" HC="0.06" NOx="0.92" PMx="0.02" fuel="1.22" electricity="0.00" noise="65.35" route="!vehicle_0" type="CarType" waiting="0.00" lane="edge1_0" pos="288.96" speed="14.66" angle="90.00" x="-6.31" y="-176.46"/>
        <vehicle id="vehicle_1" eclass="HBEFA3/PC_G_EU4" CO2="0.00" CO="0.00" HC="0.00" NOx="0.00" PMx="0.00" fuel="0.00" electricity="0.00" noise="63.52" route="route_1" type="CarType" waiting="0.00" lane="-edge2_0" pos="287.02" speed="14.00" angle="101.35" x="21.18" y="-123.92"/>
        <vehicle id="vehicle_electric" eclass="Energy/default" CO2="0.00" CO="0.00" HC="0.00" NOx="0.00" PMx="0.00" fuel="0.00" electricity="1.65" noise="63.81" route="route_1" type="electricCar" waiting="0.00" lane="-edge2_0" pos="215.08" speed="12.75" angle="101.35" x="-49.36" y="-109.76"/>
        <vehicle id="vehicle_zeroEmissions" eclass="HBEFA3/PC_G_EU4" CO2="4400.08" CO="37.81" HC="0.27" NOx="1.68" PMx="0.07" fuel="1.89" electricity="0.00" noise="65.97" route="route_1" type="electricCarZeroEmissions" waiting="0.00" lane="-edge2_0" pos="192.58" speed="13.67" angle="101.35" x="-71.43" y="-105.33"/>
    </timestep>
    <timestep time="24.00">
        <vehicle id="vehicle_0" eclass="HBEFA3/PC_G_EU4" CO2="0.00" CO="0.00" HC="0.00" NOx="0.00" PMx="0.00" fuel="0.00" electricity="0.00" noise="64.72" route="!vehicle_0" type="CarType" waiting="0.00" lane="edge1_0" pos="303.49" speed="14.53" angle="90.00" x="8.22" y="-176.46"/>
        <vehicle id="vehicle_1" eclass="HBEFA3/PC_G_EU4" CO2="0.00" CO="0.00" HC="0.00" NOx="0.00" PMx="0.00" fuel="0.00" electricity="0.00" noise="64.43" route="route_1" type="CarType" waiting="0.00" lane="-edge2_0" pos="300.95" speed="13.93" angle="101.35" x="34.83" y="-126.66"/>
        <vehicle id="vehicle_electric" eclass="Energy/default" CO2="0.00" CO="0.00" HC="0.00" NOx="0.00" PMx="0.00" fuel="0.00" electricity="-0.77" noise="61.89" route="route_1" type="electricCar" waiting="0.00" lane="-edge2_0" pos="227.19" speed="12.11" angle="101.35" x="-37.48" y="-112.14"/>
        <vehicle id="vehicle_zeroEmissions" eclass="HBEFA3/PC_G_EU4" CO2="0.00" CO="0.00" HC="0.00" NOx="0.00" PMx="0.00" fuel="0.00" electricity="0.00" noise="61.45" route="route_1" type="electricCarZeroEmissions" waiting="0.00" lane="-edge2_0" pos="205.10" speed="12.52" angle="101.35" x="-59.15" y="-107.79"/>
    </timestep>
    <timestep time="25.00">