<?xml version="1.0" encoding="UTF-8"?>

<!-- generated on 11/12/20 21:14:44 by Eclipse SUMO GUI Version 1.7.0
<configuration xmlns:xsi="http://www.w3.org/2001/XMLSchema-instance" xsi:noNamespaceSchemaLocation="http://sumo.dlr.de/xsd/sumoConfiguration.xsd">

    <input>
        <net-file value="C:\Users\Sandrus\Documents\Research\SUMO\SUMO_DEMOS\Emissions\ThreeEdges_OneCar\threeEdges_OneCar.net.xml"/>
        <route-files value="C:\Users\Sandrus\Documents\Research\SUMO\SUMO_DEMOS\Emissions\ThreeEdges_OneCar\threeEdges_Onecar.rou.xml"/>
    </input>

    <output>
        <emission-output value="C:\Users\Sandrus\Documents\Research\SUMO\SUMO_DEMOS\Emissions\ThreeEdges_OneCar\threeEdges_OneCar_emission_output.xml"/>
        <fcd-output value="C:\Users\Sandrus\Documents\Research\SUMO\SUMO_DEMOS\Emissions\ThreeEdges_OneCar\threeEdges_OneCar.fcd.xml"/>
        <tripinfo-output value="C:\Users\Sandrus\Documents\Research\SUMO\SUMO_DEMOS\Emissions\ThreeEdges_OneCar\threeEdges_OneCar_info.xml"/>
    </output>

    <emissions>
        <device.emissions.probability value="1"/>
    </emissions>

</configuration>
-->

<fcd-export xmlns:xsi="http://www.w3.org/2001/XMLSchema-instance" xsi:noNamespaceSchemaLocation="http://sumo.dlr.de/xsd/fcd_file.xsd">
    <timestep time="0.00">
        <vehicle id="vehicle_0" x="-290.17" y="-176.46" angle="90.00" type="CarType" speed="0.00" pos="5.10" lane="edge1_0" slope="0.00"/>
        <vehicle id="vehicle_1" x="-255.24" y="-68.43" angle="101.35" type="CarType" speed="0.00" pos="5.10" lane="-edge2_0" slope="0.00"/>
    </timestep>
    <timestep time="1.00">
        <vehicle id="vehicle_0" x="-288.14" y="-176.46" angle="90.00" type="CarType" speed="2.03" pos="7.13" lane="edge1_0" slope="0.00"/>
        <vehicle id="vehicle_1" x="-252.95" y="-68.89" angle="101.35" type="CarType" speed="2.34" pos="7.44" lane="-edge2_0" slope="0.00"/>
    </timestep>
    <timestep time="2.00">
        <vehicle id="vehicle_0" x="-284.16" y="-176.46" angle="90.00" type="CarType" speed="3.98" pos="11.11" lane="edge1_0" slope="0.00"/>
        <vehicle id="vehicle_1" x="-249.24" y="-69.64" angle="101.35" type="CarType" speed="3.78" pos="11.22" lane="-edge2_0" slope="0.00"/>
    </timestep>
    <timestep time="3.00">
        <vehicle id="vehicle_0" x="-277.61" y="-176.46" angle="90.00" type="CarType" speed="6.54" pos="17.66" lane="edge1_0" slope="0.00"/>
        <vehicle id="vehicle_1" x="-243.13" y="-70.87" angle="101.35" type="CarType" speed="6.23" pos="17.45" lane="-edge2_0" slope="0.00"/>
    </timestep>
    <timestep time="4.00">
        <vehicle id="vehicle_0" x="-269.34" y="-176.46" angle="90.00" type="CarType" speed="8.27" pos="25.93" lane="edge1_0" slope="0.00"/>
        <vehicle id="vehicle_1" x="-235.19" y="-72.46" angle="101.35" type="CarType" speed="8.09" pos="25.55" lane="-edge2_0" slope="0.00"/>
    </timestep>
    <timestep time="5.00">
        <vehicle id="vehicle_0" x="-259.65" y="-176.46" angle="90.00" type="CarType" speed="9.69" pos="35.62" lane="edge1_0" slope="0.00"/>
        <vehicle id="vehicle_1" x="-225.00" y="-74.50" angle="101.35" type="CarType" speed="10.40" pos="35.94" lane="-edge2_0" slope="0.00"/>
    </timestep>
    <timestep time="6.00">
        <vehicle id="vehicle_0" x="-248.28" y="-176.46" angle="90.00" type="CarType" speed="11.37" pos="46.99" lane="edge1_0" slope="0.00"/>
        <vehicle id="vehicle_1" x="-212.75" y="-76.96" angle="101.35" type="CarType" speed="12.49" pos="48.44" lane="-edge2_0" slope="0.00"/>
    </timestep>
    <timestep time="7.00">
        <vehicle id="vehicle_0" x="-236.18" y="-176.46" angle="90.00" type="CarType" speed="12.09" pos="59.09" lane="edge1_0" slope="0.00"/>
        <vehicle id="vehicle_1" x="-199.45" y="-79.63" angle="101.35" type="CarType" speed="13.56" pos="62.00" lane="-edge2_0" slope="0.00"/>
    </timestep>
    <timestep time="8.00">
        <vehicle id="vehicle_0" x="-224.36" y="-176.46" angle="90.00" type="CarType" speed="11.82" pos="70.91" lane="edge1_0" slope="0.00"/>
        <vehicle id="vehicle_1" x="-185.84" y="-82.36" angle="101.35" type="CarType" speed="13.89" pos="75.89" lane="-edge2_0" slope="0.00"/>
    </timestep>
    <timestep time="9.00">
        <vehicle id="vehicle_0" x="-212.18" y="-176.46" angle="90.00" type="CarType" speed="12.18" pos="83.09" lane="edge1_0" slope="0.00"/>
        <vehicle id="vehicle_1" x="-172.50" y="-85.04" angle="101.35" type="CarType" speed="13.60" pos="89.48" lane="-edge2_0" slope="0.00"/>
    </timestep>
    <timestep time="10.00">
        <vehicle id="vehicle_0" x="-199.63" y="-176.46" angle="90.00" type="CarType" speed="12.55" pos="95.64" lane="edge1_0" slope="0.00"/>
        <vehicle id="vehicle_1" x="-159.16" y="-87.72" angle="101.35" type="CarType" speed="13.61" pos="103.09" lane="-edge2_0" slope="0.00"/>
    </timestep>
    <timestep time="11.00">
        <vehicle id="vehicle_0" x="-187.82" y="-176.46" angle="90.00" type="CarType" speed="11.81" pos="107.45" lane="edge1_0" slope="0.00"/>
        <vehicle id="vehicle_1" x="-145.75" y="-90.41" angle="101.35" type="CarType" speed="13.68" pos="116.77" lane="-edge2_0" slope="0.00"/>
    </timestep>
    <timestep time="12.00">
        <vehicle id="vehicle_0" x="-175.37" y="-176.46" angle="90.00" type="CarType" speed="12.45" pos="119.90" lane="edge1_0" slope="0.00"/>
        <vehicle id="vehicle_1" x="-131.51" y="-93.27" angle="101.35" type="CarType" speed="14.53" pos="131.30" lane="-edge2_0" slope="0.00"/>
    </timestep>
    <timestep time="13.00">
        <vehicle id="vehicle_0" x="-163.18" y="-176.46" angle="90.00" type="CarType" speed="12.19" pos="132.09" lane="edge1_0" slope="0.00"/>
        <vehicle id="vehicle_1" x="-117.51" y="-96.08" angle="101.35" type="CarType" speed="14.28" pos="145.58" lane="-edge2_0" slope="0.00"/>
    </timestep>
    <timestep time="14.00">
        <vehicle id="vehicle_0" x="-151.31" y="-176.46" angle="90.00" type="CarType" speed="11.87" pos="143.96" lane="edge1_0" slope="0.00"/>
        <vehicle id="vehicle_1" x="-103.63" y="-98.87" angle="101.35" type="CarType" speed="14.16" pos="159.73" lane="-edge2_0" slope="0.00"/>
    </timestep>
    <timestep time="15.00">
        <vehicle id="vehicle_0" x="-139.12" y="-176.46" angle="90.00" type="CarType" speed="12.19" pos="156.15" lane="edge1_0" slope="0.00"/>
        <vehicle id="vehicle_1" x="-90.00" y="-101.60" angle="101.35" type="CarType" speed="13.90" pos="173.63" lane="-edge2_0" slope="0.00"/>
    </timestep>
    <timestep time="16.00">
        <vehicle id="vehicle_0" x="-127.09" y="-176.46" angle="90.00" type="CarType" speed="12.03" pos="168.18" lane="edge1_0" slope="0.00"/>
        <vehicle id="vehicle_1" x="-75.61" y="-104.49" angle="101.35" type="CarType" speed="14.68" pos="188.31" lane="-edge2_0" slope="0.00"/>
    </timestep>
    <timestep time="17.00">
        <vehicle id="vehicle_0" x="-115.24" y="-176.46" angle="90.00" type="CarType" speed="11.85" pos="180.03" lane="edge1_0" slope="0.00"/>
        <vehicle id="vehicle_1" x="-62.15" y="-107.19" angle="101.35" type="CarType" speed="13.73" pos="202.04" lane="-edge2_0" slope="0.00"/>
    </timestep>
    <timestep time="18.00">
        <vehicle id="vehicle_0" x="-102.24" y="-176.46" angle="90.00" type="CarType" speed="12.99" pos="193.03" lane="edge1_0" slope="0.00"/>
        <vehicle id="vehicle_1" x="-48.53" y="-109.92" angle="101.35" type="CarType" speed="13.89" pos="215.93" lane="-edge2_0" slope="0.00"/>
    </timestep>
    <timestep time="19.00">
        <vehicle id="vehicle_0" x="-90.10" y="-176.46" angle="90.00" type="CarType" speed="12.14" pos="205.17" lane="edge1_0" slope="0.00"/>
        <vehicle id="vehicle_1" x="-34.57" y="-112.73" angle="101.35" type="CarType" speed="14.25" pos="230.17" lane="-edge2_0" slope="0.00"/>
    </timestep>
    <timestep time="20.00">
        <vehicle id="vehicle_0" x="-77.10" y="-176.46" angle="90.00" type="CarType" speed="13.00" pos="218.17" lane="edge1_0" slope="0.00"/>
        <vehicle id="vehicle_1" x="-21.10" y="-115.43" angle="101.35" type="CarType" speed="13.74" pos="243.91" lane="-edge2_0" slope="0.00"/>
    </timestep>
    <timestep time="21.00">
        <vehicle id="vehicle_0" x="-64.54" y="-176.46" angle="90.00" type="CarType" speed="12.55" pos="230.73" lane="edge1_0" slope="0.00"/>
        <vehicle id="vehicle_1" x="-7.29" y="-118.20" angle="101.35" type="CarType" speed="14.08" pos="257.99" lane="-edge2_0" slope="0.00"/>
    </timestep>
    <timestep time="22.00">
        <vehicle id="vehicle_0" x="-51.99" y="-176.46" angle="90.00" type="CarType" speed="12.55" pos="243.28" lane="edge1_0" slope="0.00"/>
        <vehicle id="vehicle_1" x="5.90" y="-120.85" angle="101.35" type="CarType" speed="13.46" pos="271.44" lane="-edge2_0" slope="0.00"/>
    </timestep>
    <timestep time="23.00">
        <vehicle id="vehicle_0" x="-39.33" y="-176.46" angle="90.00" type="CarType" speed="12.66" pos="255.94" lane="edge1_0" slope="0.00"/>
        <vehicle id="vehicle_1" x="19.19" y="-123.52" angle="101.35" type="CarType" speed="13.55" pos="285.00" lane="-edge2_0" slope="0.00"/>
    </timestep>
    <timestep time="24.00">
        <vehicle id="vehicle_0" x="-26.81" y="-176.46" angle="90.00" type="CarType" speed="12.53" pos="268.46" lane="edge1_0" slope="0.00"/>
        <vehicle id="vehicle_1" x="32.64" y="-126.22" angle="101.35" type="CarType" speed="13.72" pos="298.71" lane="-edge2_0" slope="0.00"/>
    </timestep>
    <timestep time="25.00">
        <vehicle id="vehicle_0" x="-14.70" y="-176.46" angle="90.00" type="CarType" speed="12.11" pos="280.57" lane="edge1_0" slope="0.00"/>
        <vehicle id="vehicle_1" x="46.53" y="-129.01" angle="101.35" type="CarType" speed="14.17" pos="312.88" lane="-edge2_0" slope="0.00"/>
    </timestep>
    <timestep time="26.00">
        <vehicle id="vehicle_0" x="-2.76" y="-176.46" angle="90.00" type="CarType" speed="11.93" pos="292.51" lane="edge1_0" slope="0.00"/>
        <vehicle id="vehicle_1" x="60.35" y="-131.78" angle="101.35" type="CarType" speed="14.10" pos="326.98" lane="-edge2_0" slope="0.00"/>
    </timestep>
    <timestep time="27.00">
        <vehicle id="vehicle_0" x="9.36" y="-176.46" angle="90.00" type="CarType" speed="12.13" pos="304.63" lane="edge1_0" slope="0.00"/>
        <vehicle id="vehicle_1" x="74.31" y="-134.58" angle="101.35" type="CarType" speed="14.24" pos="341.22" lane="-edge2_0" slope="0.00"/>
    </timestep>
    <timestep time="28.00">
        <vehicle id="vehicle_0" x="21.93" y="-176.46" angle="90.00" type="CarType" speed="12.57" pos="317.20" lane="edge1_0" slope="0.00"/>
        <vehicle id="vehicle_1" x="88.16" y="-137.36" angle="101.35" type="CarType" speed="14.12" pos="355.34" lane="-edge2_0" slope="0.00"/>
    </timestep>
    <timestep time="29.00">
        <vehicle id="vehicle_0" x="33.97" y="-176.46" angle="90.00" type="CarType" speed="12.04" pos="329.24" lane="edge1_0" slope="0.00"/>
        <vehicle id="vehicle_1" x="101.46" y="-140.03" angle="101.35" type="CarType" speed="13.56" pos="368.90" lane="-edge2_0" slope="0.00"/>
    </timestep>
    <timestep time="30.00">
        <vehicle id="vehicle_0" x="46.48" y="-176.46" angle="90.00" type="CarType" speed="12.51" pos="341.75" lane="edge1_0" slope="0.00"/>
        <vehicle id="vehicle_1" x="115.51" y="-142.85" angle="101.35" type="CarType" speed="14.33" pos="383.23" lane="-edge2_0" slope="0.00"/>
    </timestep>
    <timestep time="31.00">
        <vehicle id="vehicle_0" x="59.29" y="-176.46" angle="90.00" type="CarType" speed="12.81" pos="354.56" lane="edge1_0" slope="0.00"/>
        <vehicle id="vehicle_1" x="129.31" y="-145.62" angle="101.35" type="CarType" speed="14.08" pos="397.32" lane="-edge2_0" slope="0.00"/>
    </timestep>
    <timestep time="32.00">
        <vehicle id="vehicle_0" x="71.19" y="-176.46" angle="90.00" type="CarType" speed="11.90" pos="366.46" lane="edge1_0" slope="0.00"/>
        <vehicle id="vehicle_1" x="142.57" y="-148.28" angle="101.35" type="CarType" speed="13.52" pos="410.83" lane="-edge2_0" slope="0.00"/>
    </timestep>
    <timestep time="33.00">
        <vehicle id="vehicle_0" x="83.10" y="-176.46" angle="90.00" type="CarType" speed="11.91" pos="378.37" lane="edge1_0" slope="0.00"/>
        <vehicle id="vehicle_1" x="156.42" y="-151.06" angle="101.35" type="CarType" speed="14.12" pos="424.96" lane="-edge2_0" slope="0.00"/>
    </timestep>
    <timestep time="34.00">
        <vehicle id="vehicle_0" x="95.09" y="-176.46" angle="90.00" type="CarType" speed="11.99" pos="390.36" lane="edge1_0" slope="0.00"/>
        <vehicle id="vehicle_1" x="170.78" y="-153.95" angle="101.35" type="CarType" speed="14.65" pos="439.61" lane="-edge2_0" slope="0.00"/>
    </timestep>
    <timestep time="35.00">
        <vehicle id="vehicle_0" x="107.71" y="-176.46" angle="90.00" type="CarType" speed="12.62" pos="402.98" lane="edge1_0" slope="0.00"/>
        <vehicle id="vehicle_1" x="185.05" y="-156.81" angle="101.35" type="CarType" speed="14.56" pos="454.17" lane="-edge2_0" slope="0.00"/>
    </timestep>
    <timestep time="36.00">
        <vehicle id="vehicle_0" x="120.50" y="-176.46" angle="90.00" type="CarType" speed="12.79" pos="415.77" lane="edge1_0" slope="0.00"/>
        <vehicle id="vehicle_1" x="198.75" y="-159.56" angle="101.35" type="CarType" speed="13.97" pos="468.14" lane="-edge2_0" slope="0.00"/>
    </timestep>
    <timestep time="37.00">
        <vehicle id="vehicle_0" x="133.18" y="-176.46" angle="90.00" type="CarType" speed="12.68" pos="428.45" lane="edge1_0" slope="0.00"/>
        <vehicle id="vehicle_1" x="212.25" y="-162.27" angle="101.35" type="CarType" speed="13.76" pos="481.90" lane="-edge2_0" slope="0.00"/>
    </timestep>
    <timestep time="38.00">
        <vehicle id="vehicle_0" x="145.29" y="-176.46" angle="90.00" type="CarType" speed="12.10" pos="440.56" lane="edge1_0" slope="0.00"/>
        <vehicle id="vehicle_1" x="226.51" y="-165.13" angle="101.35" type="CarType" speed="14.55" pos="496.45" lane="-edge2_0" slope="0.00"/>
    </timestep>
    <timestep time="39.00">
        <vehicle id="vehicle_0" x="157.52" y="-176.46" angle="90.00" type="CarType" speed="12.23" pos="452.79" lane="edge1_0" slope="0.00"/>
        <vehicle id="vehicle_1" x="239.83" y="-167.81" angle="101.35" type="CarType" speed="13.59" pos="510.04" lane="-edge2_0" slope="0.00"/>
    </timestep>
    <timestep time="40.00">
        <vehicle id="vehicle_0" x="170.18" y="-176.46" angle="90.00" type="CarType" speed="12.66" pos="465.45" lane="edge1_0" slope="0.00"/>
        <vehicle id="vehicle_1" x="249.41" y="-169.73" angle="101.35" type="CarType" speed="9.77" pos="519.81" lane="-edge2_0" slope="0.00"/>
    </timestep>
    <timestep time="41.00">
        <vehicle id="vehicle_0" x="182.80" y="-176.46" angle="90.00" type="CarType" speed="12.62" pos="478.07" lane="edge1_0" slope="0.00"/>
        <vehicle id="vehicle_1" x="254.77" y="-170.92" angle="102.68" type="CarType" speed="5.49" pos="3.66" lane=":node2_1_0" slope="0.00"/>
    </timestep>
    <timestep time="42.00">
        <vehicle id="vehicle_0" x="194.76" y="-176.46" angle="90.00" type="CarType" speed="11.95" pos="490.03" lane="edge1_0" slope="0.00"/>
        <vehicle id="vehicle_1" x="257.12" y="-173.01" angle="154.00" type="CarType" speed="6.54" pos="10.19" lane=":node2_1_0" slope="0.00"/>
    </timestep>
    <timestep time="43.00">
        <vehicle id="vehicle_0" x="207.47" y="-176.46" angle="90.00" type="CarType" speed="12.71" pos="502.74" lane="edge1_0" slope="0.00"/>
        <vehicle id="vehicle_1" x="250.99" y="-173.26" angle="268.11" type="CarType" speed="6.14" pos="16.33" lane=":node2_1_0" slope="0.00"/>
    </timestep>
    <timestep time="44.00">
        <vehicle id="vehicle_0" x="219.61" y="-176.46" angle="90.00" type="CarType" speed="12.15" pos="514.88" lane="edge1_0" slope="0.00"/>
        <vehicle id="vehicle_1" x="245.37" y="-173.26" angle="270.00" type="CarType" speed="5.62" pos="5.52" lane="-edge1_0" slope="0.00"/>
    </timestep>
    <timestep time="45.00">
        <vehicle id="vehicle_0" x="231.36" y="-176.46" angle="90.00" type="CarType" speed="11.74" pos="526.63" lane="edge1_0" slope="0.00"/>
        <vehicle id="vehicle_1" x="237.99" y="-173.26" angle="270.00" type="CarType" speed="7.37" pos="12.90" lane="-edge1_0" slope="0.00"/>
    </timestep>
    <timestep time="46.00">
        <vehicle id="vehicle_0" x="243.31" y="-176.46" angle="90.00" type="CarType" speed="11.96" pos="538.58" lane="edge1_0" slope="0.00"/>
        <vehicle id="vehicle_1" x="228.72" y="-173.26" angle="270.00" type="CarType" speed="9.28" pos="22.17" lane="-edge1_0" slope="0.00"/>
    </timestep>
    <timestep time="47.00">
        <vehicle id="vehicle_0" x="250.77" y="-176.46" angle="90.00" type="CarType" speed="7.46" pos="546.04" lane="edge1_0" slope="0.00"/>
        <vehicle id="vehicle_1" x="217.35" y="-173.26" angle="270.00" type="CarType" speed="11.37" pos="33.54" lane="-edge1_0" slope="0.00"/>
    </timestep>
    <timestep time="48.00">
        <vehicle id="vehicle_0" x="254.59" y="-173.78" angle="55.18" type="CarType" speed="4.97" pos="4.85" lane=":node2_0_0" slope="0.00"/>
        <vehicle id="vehicle_1" x="204.39" y="-173.26" angle="270.00" type="CarType" speed="12.95" pos="46.50" lane="-edge1_0" slope="0.00"/>
    </timestep>
    <timestep time="49.00">
        <vehicle id="vehicle_0" x="254.83" y="-169.85" angle="7.13" type="CarType" speed="4.13" pos="8.98" lane=":node2_0_0" slope="0.00"/>
        <vehicle id="vehicle_1" x="190.68" y="-173.26" angle="270.00" type="CarType" speed="13.72" pos="60.21" lane="-edge1_0" slope="0.00"/>
    </timestep>
    <timestep time="50.00">
        <vehicle id="vehicle_0" x="251.85" y="-166.96" angle="318.42" type="CarType" speed="4.37" pos="13.35" lane=":node2_0_0" slope="0.00"/>
        <vehicle id="vehicle_1" x="176.47" y="-173.26" angle="270.00" type="CarType" speed="14.21" pos="74.42" lane="-edge1_0" slope="0.00"/>
    </timestep>
    <timestep time="51.00">
        <vehicle id="vehicle_0" x="246.72" y="-165.92" angle="281.35" type="CarType" speed="5.23" pos="5.22" lane="edge2_0" slope="0.00"/>
        <vehicle id="vehicle_1" x="162.60" y="-173.26" angle="270.00" type="CarType" speed="13.86" pos="88.29" lane="-edge1_0" slope="0.00"/>
    </timestep>
    <timestep time="52.00">
        <vehicle id="vehicle_0" x="240.19" y="-164.61" angle="281.35" type="CarType" speed="6.67" pos="11.89" lane="edge2_0" slope="0.00"/>
        <vehicle id="vehicle_1" x="148.39" y="-173.26" angle="270.00" type="CarType" speed="14.21" pos="102.50" lane="-edge1_0" slope="0.00"/>
    </timestep>
    <timestep time="53.00">
        <vehicle id="vehicle_0" x="231.10" y="-162.79" angle="281.35" type="CarType" speed="9.27" pos="21.15" lane="edge2_0" slope="0.00"/>
        <vehicle id="vehicle_1" x="134.11" y="-173.26" angle="270.00" type="CarType" speed="14.29" pos="116.78" lane="-edge1_0" slope="0.00"/>
    </timestep>
    <timestep time="54.00">
        <vehicle id="vehicle_0" x="219.88" y="-160.54" angle="281.35" type="CarType" speed="11.44" pos="32.59" lane="edge2_0" slope="0.00"/>
        <vehicle id="vehicle_1" x="120.02" y="-173.26" angle="270.00" type="CarType" speed="14.09" pos="130.87" lane="-edge1_0" slope="0.00"/>
    </timestep>
    <timestep time="55.00">
        <vehicle id="vehicle_0" x="207.28" y="-158.01" angle="281.35" type="CarType" speed="12.86" pos="45.45" lane="edge2_0" slope="0.00"/>
        <vehicle id="vehicle_1" x="105.97" y="-173.26" angle="270.00" type="CarType" speed="14.05" pos="144.92" lane="-edge1_0" slope="0.00"/>
    </timestep>
    <timestep time="56.00">
        <vehicle id="vehicle_0" x="195.05" y="-155.55" angle="281.35" type="CarType" speed="12.47" pos="57.92" lane="edge2_0" slope="0.00"/>
        <vehicle id="vehicle_1" x="91.86" y="-173.26" angle="270.00" type="CarType" speed="14.11" pos="159.03" lane="-edge1_0" slope="0.00"/>
    </timestep>
    <timestep time="57.00">
        <vehicle id="vehicle_0" x="182.45" y="-153.02" angle="281.35" type="CarType" speed="12.85" pos="70.77" lane="edge2_0" slope="0.00"/>
        <vehicle id="vehicle_1" x="78.34" y="-173.26" angle="270.00" type="CarType" speed="13.53" pos="172.55" lane="-edge1_0" slope="0.00"/>
    </timestep>
    <timestep time="58.00">
        <vehicle id="vehicle_0" x="170.77" y="-150.68" angle="281.35" type="CarType" speed="11.91" pos="82.68" lane="edge2_0" slope="0.00"/>
        <vehicle id="vehicle_1" x="64.88" y="-173.26" angle="270.00" type="CarType" speed="13.45" pos="186.01" lane="-edge1_0" slope="0.00"/>
    </timestep>
    <timestep time="59.00">
        <vehicle id="vehicle_0" x="159.21" y="-148.36" angle="281.35" type="CarType" speed="11.79" pos="94.47" lane="edge2_0" slope="0.00"/>
        <vehicle id="vehicle_1" x="50.89" y="-173.26" angle="270.00" type="CarType" speed="13.99" pos="200.00" lane="-edge1_0" slope="0.00"/>
    </timestep>
    <timestep time="60.00">
        <vehicle id="vehicle_0" x="147.04" y="-145.92" angle="281.35" type="CarType" speed="12.41" pos="106.88" lane="edge2_0" slope="0.00"/>
        <vehicle id="vehicle_1" x="37.44" y="-173.26" angle="270.00" type="CarType" speed="13.45" pos="213.45" lane="-edge1_0" slope="0.00"/>
    </timestep>
    <timestep time="61.00">
        <vehicle id="vehicle_0" x="135.49" y="-143.60" angle="281.35" type="CarType" speed="11.78" pos="118.67" lane="edge2_0" slope="0.00"/>
        <vehicle id="vehicle_1" x="23.42" y="-173.26" angle="270.00" type="CarType" speed="14.02" pos="227.47" lane="-edge1_0" slope="0.00"/>
    </timestep>
    <timestep time="62.00">
        <vehicle id="vehicle_0" x="122.88" y="-141.06" angle="281.35" type="CarType" speed="12.86" pos="131.53" lane="edge2_0" slope="0.00"/>
        <vehicle id="vehicle_1" x="9.17" y="-173.26" angle="270.00" type="CarType" speed="14.25" pos="241.72" lane="-edge1_0" slope="0.00"/>
    </timestep>
    <timestep time="63.00">
        <vehicle id="vehicle_0" x="110.73" y="-138.63" angle="281.35" type="CarType" speed="12.39" pos="143.92" lane="edge2_0" slope="0.00"/>
        <vehicle id="vehicle_1" x="-4.64" y="-173.26" angle="270.00" type="CarType" speed="13.81" pos="255.53" lane="-edge1_0" slope="0.00"/>
    </timestep>
    <timestep time="64.00">
        <vehicle id="vehicle_0" x="98.59" y="-136.19" angle="281.35" type="CarType" speed="12.38" pos="156.31" lane="edge2_0" slope="0.00"/>
        <vehicle id="vehicle_1" x="-19.24" y="-173.26" angle="270.00" type="CarType" speed="14.60" pos="270.13" lane="-edge1_0" slope="0.00"/>
    </timestep>
    <timestep time="65.00">
        <vehicle id="vehicle_0" x="86.63" y="-133.79" angle="281.35" type="CarType" speed="12.20" pos="168.51" lane="edge2_0" slope="0.00"/>
        <vehicle id="vehicle_1" x="-33.42" y="-173.26" angle="270.00" type="CarType" speed="14.18" pos="284.31" lane="-edge1_0" slope="0.00"/>
    </timestep>
    <timestep time="66.00">
        <vehicle id="vehicle_0" x="74.75" y="-131.40" angle="281.35" type="CarType" speed="12.11" pos="180.62" lane="edge2_0" slope="0.00"/>
        <vehicle id="vehicle_1" x="-47.31" y="-173.26" angle="270.00" type="CarType" speed="13.88" pos="298.20" lane="-edge1_0" slope="0.00"/>
    </timestep>
    <timestep time="67.00">
        <vehicle id="vehicle_0" x="62.01" y="-128.85" angle="281.35" type="CarType" speed="13.00" pos="193.61" lane="edge2_0" slope="0.00"/>
        <vehicle id="vehicle_1" x="-60.78" y="-173.26" angle="270.00" type="CarType" speed="13.47" pos="311.67" lane="-edge1_0" slope="0.00"/>
    </timestep>
    <timestep time="68.00">
        <vehicle id="vehicle_0" x="49.55" y="-126.35" angle="281.35" type="CarType" speed="12.71" pos="206.32" lane="edge2_0" slope="0.00"/>
        <vehicle id="vehicle_1" x="-75.43" y="-173.26" angle="270.00" type="CarType" speed="14.64" pos="326.32" lane="-edge1_0" slope="0.00"/>
    </timestep>
    <timestep time="69.00">
        <vehicle id="vehicle_0" x="37.61" y="-123.95" angle="281.35" type="CarType" speed="12.18" pos="218.50" lane="edge2_0" slope="0.00"/>
        <vehicle id="vehicle_1" x="-89.21" y="-173.26" angle="270.00" type="CarType" speed="13.78" pos="340.10" lane="-edge1_0" slope="0.00"/>
    </timestep>
    <timestep time="70.00">
        <vehicle id="vehicle_0" x="25.62" y="-121.54" angle="281.35" type="CarType" speed="12.23" pos="230.73" lane="edge2_0" slope="0.00"/>
        <vehicle id="vehicle_1" x="-103.93" y="-173.26" angle="270.00" type="CarType" speed="14.72" pos="354.82" lane="-edge1_0" slope="0.00"/>
    </timestep>
    <timestep time="71.00">
        <vehicle id="vehicle_0" x="13.18" y="-119.05" angle="281.35" type="CarType" speed="12.69" pos="243.41" lane="edge2_0" slope="0.00"/>
        <vehicle id="vehicle_1" x="-118.09" y="-173.26" angle="270.00" type="CarType" speed="14.16" pos="368.98" lane="-edge1_0" slope="0.00"/>
    </timestep>
    <timestep time="72.00">
        <vehicle id="vehicle_0" x="0.69" y="-116.54" angle="281.35" type="CarType" speed="12.74" pos="256.15" lane="edge2_0" slope="0.00"/>
        <vehicle id="vehicle_1" x="-132.74" y="-173.26" angle="270.00" type="CarType" speed="14.66" pos="383.63" lane="-edge1_0" slope="0.00"/>
    </timestep>
    <timestep time="73.00">
        <vehicle id="vehicle_0" x="-11.09" y="-114.17" angle="281.35" type="CarType" speed="12.02" pos="268.17" lane="edge2_0" slope="0.00"/>
        <vehicle id="vehicle_1" x="-147.06" y="-173.26" angle="270.00" type="CarType" speed="14.32" pos="397.95" lane="-edge1_0" slope="0.00"/>
    </timestep>
    <timestep time="74.00">
        <vehicle id="vehicle_0" x="-23.50" y="-111.68" angle="281.35" type="CarType" speed="12.65" pos="280.83" lane="edge2_0" slope="0.00"/>
        <vehicle id="vehicle_1" x="-160.78" y="-173.26" angle="270.00" type="CarType" speed="13.72" pos="411.67" lane="-edge1_0" slope="0.00"/>
    </timestep>
    <timestep time="75.00">
        <vehicle id="vehicle_0" x="-36.01" y="-109.17" angle="281.35" type="CarType" speed="12.75" pos="293.58" lane="edge2_0" slope="0.00"/>
        <vehicle id="vehicle_1" x="-175.15" y="-173.26" angle="270.00" type="CarType" speed="14.37" pos="426.04" lane="-edge1_0" slope="0.00"/>
    </timestep>
    <timestep time="76.00">
        <vehicle id="vehicle_0" x="-47.80" y="-106.81" angle="281.35" type="CarType" speed="12.03" pos="305.61" lane="edge2_0" slope="0.00"/>
        <vehicle id="vehicle_1" x="-188.64" y="-173.26" angle="270.00" type="CarType" speed="13.49" pos="439.53" lane="-edge1_0" slope="0.00"/>
    </timestep>
    <timestep time="77.00">
        <vehicle id="vehicle_0" x="-60.55" y="-104.25" angle="281.35" type="CarType" speed="13.01" pos="318.61" lane="edge2_0" slope="0.00"/>
        <vehicle id="vehicle_1" x="-203.18" y="-173.26" angle="270.00" type="CarType" speed="14.54" pos="454.07" lane="-edge1_0" slope="0.00"/>
    </timestep>
    <timestep time="78.00">
        <vehicle id="vehicle_0" x="-72.82" y="-101.78" angle="281.35" type="CarType" speed="12.52" pos="331.13" lane="edge2_0" slope="0.00"/>
        <vehicle id="vehicle_1" x="-217.15" y="-173.26" angle="270.00" type="CarType" speed="13.96" pos="468.04" lane="-edge1_0" slope="0.00"/>
    </timestep>
    <timestep time="79.00">
        <vehicle id="vehicle_0" x="-85.09" y="-99.32" angle="281.35" type="CarType" speed="12.51" pos="343.65" lane="edge2_0" slope="0.00"/>
        <vehicle id="vehicle_1" x="-231.78" y="-173.26" angle="270.00" type="CarType" speed="14.63" pos="482.67" lane="-edge1_0" slope="0.00"/>
    </timestep>
    <timestep time="80.00">
        <vehicle id="vehicle_0" x="-97.20" y="-96.89" angle="281.35" type="CarType" speed="12.35" pos="355.99" lane="edge2_0" slope="0.00"/>
        <vehicle id="vehicle_1" x="-245.62" y="-173.26" angle="270.00" type="CarType" speed="13.84" pos="496.51" lane="-edge1_0" slope="0.00"/>
    </timestep>
    <timestep time="81.00">
        <vehicle id="vehicle_0" x="-109.37" y="-94.45" angle="281.35" type="CarType" speed="12.42" pos="368.41" lane="edge2_0" slope="0.00"/>
        <vehicle id="vehicle_1" x="-260.27" y="-173.26" angle="270.00" type="CarType" speed="14.65" pos="511.16" lane="-edge1_0" slope="0.00"/>
    </timestep>
    <timestep time="82.00">
        <vehicle id="vehicle_0" x="-122.15" y="-91.88" angle="281.35" type="CarType" speed="13.03" pos="381.44" lane="edge2_0" slope="0.00"/>
        <vehicle id="vehicle_1" x="-274.25" y="-173.26" angle="270.00" type="CarType" speed="13.97" pos="525.14" lane="-edge1_0" slope="0.00"/>
    </timestep>
    <timestep time="83.00">
        <vehicle id="vehicle_0" x="-134.11" y="-89.48" angle="281.35" type="CarType" speed="12.19" pos="393.63" lane="edge2_0" slope="0.00"/>
        <vehicle id="vehicle_1" x="-288.48" y="-173.26" angle="270.00" type="CarType" speed="14.23" pos="539.37" lane="-edge1_0" slope="0.00"/>
    </timestep>
    <timestep time="84.00">
        <vehicle id="vehicle_0" x="-146.67" y="-86.96" angle="281.35" type="CarType" speed="12.82" pos="406.45" lane="edge2_0" slope="0.00"/>
    </timestep>
    <timestep time="85.00">
        <vehicle id="vehicle_0" x="-158.49" y="-84.59" angle="281.35" type="CarType" speed="12.05" pos="418.50" lane="edge2_0" slope="0.00"/>
    </timestep>
    <timestep time="86.00">
        <vehicle id="vehicle_0" x="-170.95" y="-82.09" angle="281.35" type="CarType" speed="12.72" pos="431.22" lane="edge2_0" slope="0.00"/>
    </timestep>
    <timestep time="87.00">
        <vehicle id="vehicle_0" x="-183.18" y="-79.63" angle="281.35" type="CarType" speed="12.47" pos="443.69" lane="edge2_0" slope="0.00"/>
    </timestep>
    <timestep time="88.00">
        <vehicle id="vehicle_0" x="-194.99" y="-77.26" angle="281.35" type="CarType" speed="12.04" pos="455.73" lane="edge2_0" slope="0.00"/>
    </timestep>
    <timestep time="89.00">
        <vehicle id="vehicle_0" x="-206.66" y="-74.92" angle="281.35" type="CarType" speed="11.91" pos="467.64" lane="edge2_0" slope="0.00"/>
    </timestep>
    <timestep time="90.00">