<?xml version="1.0" encoding="UTF-8"?>

<!-- generated on 11/12/20 21:27:15 by Eclipse SUMO GUI Version 1.7.0
<configuration xmlns:xsi="http://www.w3.org/2001/XMLSchema-instance" xsi:noNamespaceSchemaLocation="http://sumo.dlr.de/xsd/sumoConfiguration.xsd">

    <input>
        <net-file value="C:\Users\Sandrus\Documents\Research\SUMO\SUMO_DEMOS\Emissions\ThreeEdges_OneCar\threeEdges_OneCar.net.xml"/>
        <route-files value="C:\Users\Sandrus\Documents\Research\SUMO\SUMO_DEMOS\Emissions\ThreeEdges_OneCar\threeEdges_Onecar.rou.xml"/>
    </input>

    <output>
        <emission-output value="C:\Users\Sandrus\Documents\Research\SUMO\SUMO_DEMOS\Emissions\ThreeEdges_OneCar\threeEdges_OneCar_emission_output.xml"/>
        <emission-output.precision value="2"/>
        <battery-output value="C:\Users\Sandrus\Documents\Research\SUMO\SUMO_DEMOS\Emissions\ThreeEdges_OneCar\threeEdges_OneCar_batery_output.xml"/>
        <fcd-output value="C:\Users\Sandrus\Documents\Research\SUMO\SUMO_DEMOS\Emissions\ThreeEdges_OneCar\threeEdges_OneCar.fcd.xml"/>
        <tripinfo-output value="C:\Users\Sandrus\Documents\Research\SUMO\SUMO_DEMOS\Emissions\ThreeEdges_OneCar\threeEdges_OneCar_info.xml"/>
    </output>

    <emissions>
        <device.emissions.probability value="1"/>
    </emissions>

</configuration>
-->

<emission-export xmlns:xsi="http://www.w3.org/2001/XMLSchema-instance" xsi:noNamespaceSchemaLocation="http://sumo.dlr.de/xsd/emission_file.xsd">
    <timestep time="0.00">
        <vehicle id="vehicle_0" eclass="HBEFA3/PC_G_EU4" CO2="2624.72" CO="164.78" HC="0.81" NOx="1.20" PMx="0.07" fuel="1.13" electricity="0.00" noise="55.94" route="!vehicle_0" type="CarType" waiting="0.00" lane="edge1_0" pos="5.10" speed="0.00" angle="90.00" x="-290.17" y="-176.46"/>
        <vehicle id="vehicle_1" eclass="HBEFA3/PC_G_EU4" CO2="2624.72" CO="164.78" HC="0.81" NOx="1.20" PMx="0.07" fuel="1.13" electricity="0.00" noise="55.94" route="route_1" type="CarType" waiting="0.00" lane="-edge2_0" pos="5.10" speed="0.00" angle="101.35" x="-255.24" y="-68.43"/>
    </timestep>
    <timestep time="1.00">
        <vehicle id="vehicle_0" eclass="HBEFA3/PC_G_EU4" CO2="3467.50" CO="147.97" HC="0.76" NOx="1.55" PMx="0.08" fuel="1.49" electricity="0.00" noise="65.65" route="!vehicle_0" type="CarType" waiting="0.00" lane="edge1_0" pos="7.13" speed="2.03" angle="90.00" x="-288.14" y="-176.46"/>
        <vehicle id="vehicle_1" eclass="HBEFA3/PC_G_EU4" CO2="3791.44" CO="149.72" HC="0.77" NOx="1.69" PMx="0.08" fuel="1.63" electricity="0.00" noise="67.14" route="route_1" type="CarType" waiting="0.00" lane="-edge2_0" pos="7.44" speed="2.34" angle="101.35" x="-252.95" y="-68.89"/>
    </timestep>
    <timestep time="2.00">
        <vehicle id="vehicle_0" eclass="HBEFA3/PC_G_EU4" CO2="4262.08" CO="134.70" HC="0.71" NOx="1.87" PMx="0.09" fuel="1.83" electricity="0.00" noise="66.13" route="!vehicle_0" type="CarType" waiting="0.00" lane="edge1_0" pos="11.11" speed="3.98" angle="90.00" x="-284.16" y="-176.46"/>
        <vehicle id="vehicle_1" eclass="HBEFA3/PC_G_EU4" CO2="3667.22" CO="125.37" HC="0.66" NOx="1.59" PMx="0.07" fuel="1.58" electricity="0.00" noise="63.80" route="route_1" type="CarType" waiting="0.00" lane="-edge2_0" pos="11.22" speed="3.78" angle="101.35" x="-249.24" y="-69.64"/>
    </timestep>
    <timestep time="3.00">
        <vehicle id="vehicle_0" eclass="HBEFA3/PC_G_EU4" CO2="6476.12" CO="146.31" HC="0.82" NOx="2.84" PMx="0.14" fuel="2.78" electricity="0.00" noise="69.87" route="!vehicle_0" type="CarType" waiting="0.00" lane="edge1_0" pos="17.66" speed="6.54" angle="90.00" x="-277.61" y="-176.46"/>
        <vehicle id="vehicle_1" eclass="HBEFA3/PC_G_EU4" CO2="6104.25" CO="142.47" HC="0.79" NOx="2.68" PMx="0.13" fuel="2.62" electricity="0.00" noise="69.27" route="route_1" type="CarType" waiting="0.00" lane="-edge2_0" pos="17.45" speed="6.23" angle="101.35" x="-243.13" y="-70.87"/>
    </timestep>
    <timestep time="4.00">
        <vehicle id="vehicle_0" eclass="HBEFA3/PC_G_EU4" CO2="5812.22" CO="112.80" HC="0.65" NOx="2.49" PMx="0.11" fuel="2.50" electricity="0.00" noise="67.13" route="!vehicle_0" type="CarType" waiting="0.00" lane="edge1_0" pos="25.93" speed="8.27" angle="90.00" x="-269.34" y="-176.46"/>
        <vehicle id="vehicle_1" eclass="HBEFA3/PC_G_EU4" CO2="6014.93" CO="118.88" HC="0.68" NOx="2.59" PMx="0.12" fuel="2.59" electricity="0.00" noise="67.60" route="route_1" type="CarType" waiting="0.00" lane="-edge2_0" pos="25.55" speed="8.09" angle="101.35" x="-235.19" y="-72.46"/>
    </timestep>
    <timestep time="5.00">
        <vehicle id="vehicle_0" eclass="HBEFA3/PC_G_EU4" CO2="5699.93" CO="96.01" HC="0.57" NOx="2.40" PMx="0.11" fuel="2.45" electricity="0.00" noise="66.61" route="!vehicle_0" type="CarType" waiting="0.00" lane="edge1_0" pos="35.62" speed="9.69" angle="90.00" x="-259.65" y="-176.46"/>
        <vehicle id="vehicle_1" eclass="HBEFA3/PC_G_EU4" CO2="8362.51" CO="144.31" HC="0.86" NOx="3.63" PMx="0.17" fuel="3.59" electricity="0.00" noise="70.56" route="route_1" type="CarType" waiting="0.00" lane="-edge2_0" pos="35.94" speed="10.40" angle="101.35" x="-225.00" y="-74.50"/>
    </timestep>
    <timestep time="6.00">
        <vehicle id="vehicle_0" eclass="HBEFA3/PC_G_EU4" CO2="7145.23" CO="110.86" HC="0.68" NOx="3.04" PMx="0.14" fuel="3.07" electricity="0.00" noise="68.51" route="!vehicle_0" type="CarType" waiting="0.00" lane="edge1_0" pos="46.99" speed="11.37" angle="90.00" x="-248.28" y="-176.46"/>
        <vehicle id="vehicle_1" eclass="HBEFA3/PC_G_EU4" CO2="9063.20" CO="141.71" HC="0.86" NOx="3.91" PMx="0.19" fuel="3.90" electricity="0.00" noise="70.75" route="route_1" type="CarType" waiting="0.00" lane="-edge2_0" pos="48.44" speed="12.49" angle="101.35" x="-212.75" y="-76.96"/>
    </timestep>
    <timestep time="7.00">
        <vehicle id="vehicle_0" eclass="HBEFA3/PC_G_EU4" CO2="4473.86" CO="50.19" HC="0.33" NOx="1.76" PMx="0.07" fuel="1.92" electricity="0.00" noise="65.41" route="!vehicle_0" type="CarType" waiting="0.00" lane="edge1_0" pos="59.09" speed="12.09" angle="90.00" x="-236.18" y="-176.46"/>
        <vehicle id="vehicle_1" eclass="HBEFA3/PC_G_EU4" CO2="6072.97" CO="72.92" HC="0.48" NOx="2.47" PMx="0.11" fuel="2.61" electricity="0.00" noise="67.43" route="route_1" type="CarType" waiting="0.00" lane="-edge2_0" pos="62.00" speed="13.56" angle="101.35" x="-199.45" y="-79.63"/>
    </timestep>
    <timestep time="8.00">
        <vehicle id="vehicle_0" eclass="HBEFA3/PC_G_EU4" CO2="0.00" CO="0.00" HC="0.00" NOx="0.00" PMx="0.00" fuel="0.00" electricity="0.00" noise="62.43" route="!vehicle_0" type="CarType" waiting="0.00" lane="edge1_0" pos="70.91" speed="11.82" angle="90.00" x="-224.36" y="-176.46"/>
        <vehicle id="vehicle_1" eclass="HBEFA3/PC_G_EU4" CO2="3524.20" CO="18.41" HC="0.16" NOx="1.26" PMx="0.04" fuel="1.51" electricity="0.00" noise="65.38" route="route_1" type="CarType" waiting="0.00" lane="-edge2_0" pos="75.89" speed="13.89" angle="101.35" x="-185.84" y="-82.36"/>
    </timestep>
    <timestep time="9.00">
        <vehicle id="vehicle_0" eclass="HBEFA3/PC_G_EU4" CO2="3354.23" CO="26.47" HC="0.20" NOx="1.23" PMx="0.04" fuel="1.44" electricity="0.00" noise="64.35" route="!vehicle_0" type="CarType" waiting="0.00" lane="edge1_0" pos="83.09" speed="12.18" angle="90.00" x="-212.18" y="-176.46"/>
        <vehicle id="vehicle_1" eclass="HBEFA3/PC_G_EU4" CO2="0.00" CO="0.00" HC="0.00" NOx="0.00" PMx="0.00" fuel="0.00" electricity="0.00" noise="63.73" route="route_1" type="CarType" waiting="0.00" lane="-edge2_0" pos="89.48" speed="13.60" angle="101.35" x="-172.50" y="-85.04"/>
    </timestep>
    <timestep time="10.00">
        <vehicle id="vehicle_0" eclass="HBEFA3/PC_G_EU4" CO2="3439.29" CO="25.51" HC="0.19" NOx="1.26" PMx="0.04" fuel="1.48" electricity="0.00" noise="64.62" route="!vehicle_0" type="CarType" waiting="0.00" lane="edge1_0" pos="95.64" speed="12.55" angle="90.00" x="-199.63" y="-176.46"/>
        <vehicle id="vehicle_1" eclass="HBEFA3/PC_G_EU4" CO2="2351.06" CO="0.00" HC="0.03" NOx="0.72" PMx="0.01" fuel="1.01" electricity="0.00" noise="64.40" route="route_1" type="CarType" waiting="0.00" lane="-edge2_0" pos="103.09" speed="13.61" angle="101.35" x="-159.16" y="-87.72"/>
    </timestep>
    <timestep time="11.00">
        <vehicle id="vehicle_0" eclass="HBEFA3/PC_G_EU4" CO2="0.00" CO="0.00" HC="0.00" NOx="0.00" PMx="0.00" fuel="0.00" electricity="0.00" noise="61.44" route="!vehicle_0" type="CarType" waiting="0.00" lane="edge1_0" pos="107.45" speed="11.81" angle="90.00" x="-187.82" y="-176.46"/>
        <vehicle id="vehicle_1" eclass="HBEFA3/PC_G_EU4" CO2="2564.45" CO="0.00" HC="0.06" NOx="0.82" PMx="0.02" fuel="1.10" electricity="0.00" noise="64.58" route="route_1" type="CarType" waiting="0.00" lane="-edge2_0" pos="116.77" speed="13.68" angle="101.35" x="-145.75" y="-90.41"/>
    </timestep>
    <timestep time="12.00">
        <vehicle id="vehicle_0" eclass="HBEFA3/PC_G_EU4" CO2="4321.85" CO="44.40" HC="0.30" NOx="1.68" PMx="0.07" fuel="1.86" electricity="0.00" noise="65.39" route="!vehicle_0" type="CarType" waiting="0.00" lane="edge1_0" pos="119.90" speed="12.45" angle="90.00" x="-175.37" y="-176.46"/>
        <vehicle id="vehicle_1" eclass="HBEFA3/PC_G_EU4" CO2="5613.41" CO="57.71" HC="0.40" NOx="2.23" PMx="0.10" fuel="2.41" electricity="0.00" noise="67.30" route="route_1" type="CarType" waiting="0.00" lane="-edge2_0" pos="131.30" speed="14.53" angle="101.35" x="-131.51" y="-93.27"/>
    </timestep>
    <timestep time="13.00">
        <vehicle id="vehicle_0" eclass="HBEFA3/PC_G_EU4" CO2="0.00" CO="0.00" HC="0.00" NOx="0.00" PMx="0.00" fuel="0.00" electricity="0.00" noise="62.72" route="!vehicle_0" type="CarType" waiting="0.00" lane="edge1_0" pos="132.09" speed="12.19" angle="90.00" x="-163.18" y="-176.46"/>
        <vehicle id="vehicle_1" eclass="HBEFA3/PC_G_EU4" CO2="0.00" CO="0.00" HC="0.00" NOx="0.00" PMx="0.00" fuel="0.00" electricity="0.00" noise="64.31" route="route_1" type="CarType" waiting="0.00" lane="-edge2_0" pos="145.58" speed="14.28" angle="101.35" x="-117.51" y="-96.08"/>
    </timestep>
    <timestep time="14.00">
        <vehicle id="vehicle_0" eclass="HBEFA3/PC_G_EU4" CO2="0.00" CO="0.00" HC="0.00" NOx="0.00" PMx="0.00" fuel="0.00" electricity="0.00" noise="62.35" route="!vehicle_0" type="CarType" waiting="0.00" lane="edge1_0" pos="143.96" speed="11.87" angle="90.00" x="-151.31" y="-176.46"/>
        <vehicle id="vehicle_1" eclass="HBEFA3/PC_G_EU4" CO2="0.00" CO="0.00" HC="0.00" NOx="0.00" PMx="0.00" fuel="0.00" electricity="0.00" noise="64.48" route="route_1" type="CarType" waiting="0.00" lane="-edge2_0" pos="159.73" speed="14.16" angle="101.35" x="-103.63" y="-98.87"/>
    </timestep>
    <timestep time="15.00">
        <vehicle id="vehicle_0" eclass="HBEFA3/PC_G_EU4" CO2="3233.33" CO="23.92" HC="0.18" NOx="1.17" PMx="0.04" fuel="1.39" electricity="0.00" noise="64.24" route="!vehicle_0" type="CarType" waiting="0.00" lane="edge1_0" pos="156.15" speed="12.19" angle="90.00" x="-139.12" y="-176.46"/>
        <vehicle id="vehicle_1" eclass="HBEFA3/PC_G_EU4" CO2="0.00" CO="0.00" HC="0.00" NOx="0.00" PMx="0.00" fuel="0.00" electricity="0.00" noise="64.01" route="route_1" type="CarType" waiting="0.00" lane="-edge2_0" pos="173.63" speed="13.90" angle="101.35" x="-90.00" y="-101.60"/>
    </timestep>
    <timestep time="16.00">
        <vehicle id="vehicle_0" eclass="HBEFA3/PC_G_EU4" CO2="0.00" CO="0.00" HC="0.00" NOx="0.00" PMx="0.00" fuel="0.00" electricity="0.00" noise="62.84" route="!vehicle_0" type="CarType" waiting="0.00" lane="edge1_0" pos="168.18" speed="12.03" angle="90.00" x="-127.09" y="-176.46"/>
        <vehicle id="vehicle_1" eclass="HBEFA3/PC_G_EU4" CO2="5399.90" CO="52.48" HC="0.37" NOx="2.13" PMx="0.09" fuel="2.32" electricity="0.00" noise="67.18" route="route_1" type="CarType" waiting="0.00" lane="-edge2_0" pos="188.31" speed="14.68" angle="101.35" x="-75.61" y="-104.49"/>
    </timestep>
    <timestep time="17.00">
        <vehicle id="vehicle_0" eclass="HBEFA3/PC_G_EU4" CO2="0.00" CO="0.00" HC="0.00" NOx="0.00" PMx="0.00" fuel="0.00" electricity="0.00" noise="62.68" route="!vehicle_0" type="CarType" waiting="0.00" lane="edge1_0" pos="180.03" speed="11.85" angle="90.00" x="-115.24" y="-176.46"/>
        <vehicle id="vehicle_1" eclass="HBEFA3/PC_G_EU4" CO2="0.00" CO="0.00" HC="0.00" NOx="0.00" PMx="0.00" fuel="0.00" electricity="0.00" noise="62.73" route="route_1" type="CarType" waiting="0.00" lane="-edge2_0" pos="202.04" speed="13.73" angle="101.35" x="-62.15" y="-107.19"/>
    </timestep>
    <timestep time="18.00">
        <vehicle id="vehicle_0" eclass="HBEFA3/PC_G_EU4" CO2="6125.69" CO="77.72" HC="0.50" NOx="2.51" PMx="0.11" fuel="2.63" electricity="0.00" noise="67.37" route="!vehicle_0" type="CarType" waiting="0.00" lane="edge1_0" pos="193.03" speed="12.99" angle="90.00" x="-102.24" y="-176.46"/>
        <vehicle id="vehicle_1" eclass="HBEFA3/PC_G_EU4" CO2="2906.79" CO="5.70" HC="0.09" NOx="0.97" PMx="0.03" fuel="1.25" electricity="0.00" noise="64.94" route="route_1" type="CarType" waiting="0.00" lane="-edge2_0" pos="215.93" speed="13.89" angle="101.35" x="-48.53" y="-109.92"/>
    </timestep>
    <timestep time="19.00">
        <vehicle id="vehicle_0" eclass="HBEFA3/PC_G_EU4" CO2="0.00" CO="0.00" HC="0.00" NOx="0.00" PMx="0.00" fuel="0.00" electricity="0.00" noise="61.54" route="!vehicle_0" type="CarType" waiting="0.00" lane="edge1_0" pos="205.17" speed="12.14" angle="90.00" x="-90.10" y="-176.46"/>
        <vehicle id="vehicle_1" eclass="HBEFA3/PC_G_EU4" CO2="3702.01" CO="19.94" HC="0.18" NOx="1.34" PMx="0.05" fuel="1.59" electricity="0.00" noise="65.70" route="route_1" type="CarType" waiting="0.00" lane="-edge2_0" pos="230.17" speed="14.25" angle="101.35" x="-34.57" y="-112.73"/>
    </timestep>
    <timestep time="20.00">
        <vehicle id="vehicle_0" eclass="HBEFA3/PC_G_EU4" CO2="5191.45" CO="58.42" HC="0.39" NOx="2.07" PMx="0.09" fuel="2.23" electricity="0.00" noise="66.43" route="!vehicle_0" type="CarType" waiting="0.00" lane="edge1_0" pos="218.17" speed="13.00" angle="90.00" x="-77.10" y="-176.46"/>
        <vehicle id="vehicle_1" eclass="HBEFA3/PC_G_EU4" CO2="0.00" CO="0.00" HC="0.00" NOx="0.00" PMx="0.00" fuel="0.00" electricity="0.00" noise="63.41" route="route_1" type="CarType" waiting="0.00" lane="-edge2_0" pos="243.91" speed="13.74" angle="101.35" x="-21.10" y="-115.43"/>
    </timestep>
    <timestep time="21.00">
        <vehicle id="vehicle_0" eclass="HBEFA3/PC_G_EU4" CO2="0.00" CO="0.00" HC="0.00" NOx="0.00" PMx="0.00" fuel="0.00" electricity="0.00" noise="62.61" route="!vehicle_0" type="CarType" waiting="0.00" lane="edge1_0" pos="230.73" speed="12.55" angle="90.00" x="-64.54" y="-176.46"/>
        <vehicle id="vehicle_1" eclass="HBEFA3/PC_G_EU4" CO2="3618.34" CO="19.19" HC="0.17" NOx="1.30" PMx="0.04" fuel="1.56" electricity="0.00" noise="65.55" route="route_1" type="CarType" waiting="0.00" lane="-edge2_0" pos="257.99" speed="14.08" angle="101.35" x="-7.29" y="-118.20"/>
    </timestep>
    <timestep time="22.00">
        <vehicle id="vehicle_0" eclass="HBEFA3/PC_G_EU4" CO2="0.00" CO="0.00" HC="0.00" NOx="0.00" PMx="0.00" fuel="0.00" electricity="0.00" noise="63.61" route="!vehicle_0" type="CarType" waiting="0.00" lane="edge1_0" pos="243.28" speed="12.55" angle="90.00" x="-51.99" y="-176.46"/>
        <vehicle id="vehicle_1" eclass="HBEFA3/PC_G_EU4" CO2="0.00" CO="0.00" HC="0.00" NOx="0.00" PMx="0.00" fuel="0.00" electricity="0.00" noise="63.00" route="route_1" type="CarType" waiting="0.00" lane="-edge2_0" pos="271.44" speed="13.46" angle="101.35" x="5.90" y="-120.85"/>
    </timestep>
    <timestep time="23.00">
        <vehicle id="vehicle_0" eclass="HBEFA3/PC_G_EU4" CO2="2601.65" CO="7.50" HC="0.09" NOx="0.86" PMx="0.02" fuel="1.12" electricity="0.00" noise="63.98" route="!vehicle_0" type="CarType" waiting="0.00" lane="edge1_0" pos="255.94" speed="12.66" angle="90.00" x="-39.33" y="-176.46"/>
        <vehicle id="vehicle_1" eclass="HBEFA3/PC_G_EU4" CO2="2655.97" CO="2.60" HC="0.07" NOx="0.86" PMx="0.02" fuel="1.14" electricity="0.00" noise="64.57" route="route_1" type="CarType" waiting="0.00" lane="-edge2_0" pos="285.00" speed="13.55" angle="101.35" x="19.19" y="-123.52"/>
    </timestep>
    <timestep time="24.00">
        <vehicle id="vehicle_0" eclass="HBEFA3/PC_G_EU4" CO2="0.00" CO="0.00" HC="0.00" NOx="0.00" PMx="0.00" fuel="0.00" electricity="0.00" noise="63.28" route="!vehicle_0" type="CarType" waiting="0.00" lane="edge1_0" pos="268.46" speed="12.53" angle="90.00" x="-26.81" y="-176.46"/>
        <vehicle id="vehicle_1" eclass="HBEFA3/PC_G_EU4" CO2="2896.76" CO="6.55" HC="0.10" NOx="0.97" PMx="0.03" fuel="1.25" electricity="0.00" noise="64.84" route="route_1" type="CarType" waiting="0.00" lane="-edge2_0" pos="298.71" speed="13.72" angle="101.35" x="32.64" y="-126.22"/>
    </timestep>
    <timestep time="25.00">
        <vehicle id="vehicle_0" eclass="HBEFA3/PC_G_EU4" CO2="0.00" CO="0.00" HC="0.00" NOx="0.00" PMx="0.00" fuel="0.00" electricity="0.00" noise="62.34" route="!vehicle_0" type="CarType" waiting="0.00" lane="edge1_0" pos="280.57" speed="12.11" angle="90.00" x="-14.70" y="-176.46"/>
        <vehicle id="vehicle_1" eclass="HBEFA3/PC_G_EU4" CO2="4029.53" CO="27.15" HC="0.22" NOx="1.49" PMx="0.06" fuel="1.73" electricity="0.00" noise="65.90" route="route_1" type="CarType" waiting="0.00" lane="-edge2_0" pos="312.88" speed="14.17" angle="101.35" x="46.53" y="-129.01"/>
    </timestep>
    <timestep time="26.00">
        <vehicle id="vehicle_0" eclass="HBEFA3/PC_G_EU4" CO2="0.00" CO="0.00" HC="0.00" NOx="0.00" PMx="0.00" fuel="0.00" electricity="0.00" noise="62.72" route="!vehicle_0" type="CarType" waiting="0.00" lane="edge1_0" pos="292.51" speed="11.93" angle="90.00" x="-2.76" y="-176.46"/>
        <vehicle id="vehicle_1" eclass="HBEFA3/PC_G_EU4" CO2="0.00" CO="0.00" HC="0.00" NOx="0.00" PMx="0.00" fuel="0.00" electricity="0.00" noise="64.57" route="route_1" type="CarType" waiting="0.00" lane="-edge2_0" pos="326.98" speed="14.10" angle="101.35" x="60.35" y="-131.78"/>
    </timestep>
    <timestep time="27.00">
        <vehicle id="vehicle_0" eclass="HBEFA3/PC_G_EU4" CO2="2825.08" CO="15.99" HC="0.14" NOx="0.98" PMx="0.03" fuel="1.21" electricity="0.00" noise="63.84" route="!vehicle_0" type="CarType" waiting="0.00" lane="edge1_0" pos="304.63" speed="12.13" angle="90.00" x="9.36" y="-176.46"/>
        <vehicle id="vehicle_1" eclass="HBEFA3/PC_G_EU4" CO2="2880.22" CO="3.07" HC="0.08" NOx="0.95" PMx="0.03" fuel="1.24" electricity="0.00" noise="65.13" route="route_1" type="CarType" waiting="0.00" lane="-edge2_0" pos="341.22" speed="14.24" angle="101.35" x="74.31" y="-134.58"/>
    </timestep>
    <timestep time="28.00">
        <vehicle id="vehicle_0" eclass="HBEFA3/PC_G_EU4" CO2="3692.37" CO="30.58" HC="0.22" NOx="1.38" PMx="0.05" fuel="1.59" electricity="0.00" noise="64.85" route="!vehicle_0" type="CarType" waiting="0.00" lane="edge1_0" pos="317.20" speed="12.57" angle="90.00" x="21.93" y="-176.46"/>
        <vehicle id="vehicle_1" eclass="HBEFA3/PC_G_EU4" CO2="0.00" CO="0.00" HC="0.00" NOx="0.00" PMx="0.00" fuel="0.00" electricity="0.00" noise="64.47" route="route_1" type="CarType" waiting="0.00" lane="-edge2_0" pos="355.34" speed="14.12" angle="101.35" x="88.16" y="-137.36"/>
    </timestep>
    <timestep time="29.00">
        <vehicle id="vehicle_0" eclass="HBEFA3/PC_G_EU4" CO2="0.00" CO="0.00" HC="0.00" NOx="0.00" PMx="0.00" fuel="0.00" electricity="0.00" noise="62.02" route="!vehicle_0" type="CarType" waiting="0.00" lane="edge1_0" pos="329.24" speed="12.04" angle="90.00" x="33.97" y="-176.46"/>
        <vehicle id="vehicle_1" eclass="HBEFA3/PC_G_EU4" CO2="0.00" CO="0.00" HC="0.00" NOx="0.00" PMx="0.00" fuel="0.00" electricity="0.00" noise="63.19" route="route_1" type="CarType" waiting="0.00" lane="-edge2_0" pos="368.90" speed="13.56" angle="101.35" x="101.46" y="-140.03"/>
    </timestep>
    <timestep time="30.00">
        <vehicle id="vehicle_0" eclass="HBEFA3/PC_G_EU4" CO2="3792.02" CO="33.05" HC="0.24" NOx="1.42" PMx="0.05" fuel="1.63" electricity="0.00" noise="64.92" route="!vehicle_0" type="CarType" waiting="0.00" lane="edge1_0" pos="341.75" speed="12.51" angle="90.00" x="46.48" y="-176.46"/>
        <vehicle id="vehicle_1" eclass="HBEFA3/PC_G_EU4" CO2="5241.28" CO="51.16" HC="0.36" NOx="2.06" PMx="0.09" fuel="2.25" electricity="0.00" noise="66.92" route="route_1" type="CarType" waiting="0.00" lane="-edge2_0" pos="383.23" speed="14.33" angle="101.35" x="115.51" y="-142.85"/>
    </timestep>
    <timestep time="31.00">
        <vehicle id="vehicle_0" eclass="HBEFA3/PC_G_EU4" CO2="3230.45" CO="19.40" HC="0.16" NOx="1.15" PMx="0.04" fuel="1.39" electricity="0.00" noise="64.57" route="!vehicle_0" type="CarType" waiting="0.00" lane="edge1_0" pos="354.56" speed="12.81" angle="90.00" x="59.29" y="-176.46"/>
        <vehicle id="vehicle_1" eclass="HBEFA3/PC_G_EU4" CO2="0.00" CO="0.00" HC="0.00" NOx="0.00" PMx="0.00" fuel="0.00" electricity="0.00" noise="64.18" route="route_1" type="CarType" waiting="0.00" lane="-edge2_0" pos="397.32" speed="14.08" angle="101.35" x="129.31" y="-145.62"/>
    </timestep>
    <timestep time="32.00">
        <vehicle id="vehicle_0" eclass="HBEFA3/PC_G_EU4" CO2="0.00" CO="0.00" HC="0.00" NOx="0.00" PMx="0.00" fuel="0.00" electricity="0.00" noise="61.23" route="!vehicle_0" type="CarType" waiting="0.00" lane="edge1_0" pos="366.46" speed="11.90" angle="90.00" x="71.19" y="-176.46"/>
        <vehicle id="vehicle_1" eclass="HBEFA3/PC_G_EU4" CO2="0.00" CO="0.00" HC="0.00" NOx="0.00" PMx="0.00" fuel="0.00" electricity="0.00" noise="63.15" route="route_1" type="CarType" waiting="0.00" lane="-edge2_0" pos="410.83" speed="13.52" angle="101.35" x="142.57" y="-148.28"/>
    </timestep>
    <timestep time="33.00">
        <vehicle id="vehicle_0" eclass="HBEFA3/PC_G_EU4" CO2="2232.00" CO="5.44" HC="0.07" NOx="0.70" PMx="0.01" fuel="0.96" electricity="0.00" noise="63.19" route="!vehicle_0" type="CarType" waiting="0.00" lane="edge1_0" pos="378.37" speed="11.91" angle="90.00" x="83.10" y="-176.46"/>
        <vehicle id="vehicle_1" eclass="HBEFA3/PC_G_EU4" CO2="4585.23" CO="38.84" HC="0.28" NOx="1.76" PMx="0.07" fuel="1.97" electricity="0.00" noise="66.31" route="route_1" type="CarType" waiting="0.00" lane="-edge2_0" pos="424.96" speed="14.12" angle="101.35" x="156.42" y="-151.06"/>
    </timestep>
    <timestep time="34.00">
        <vehicle id="vehicle_0" eclass="HBEFA3/PC_G_EU4" CO2="2450.90" CO="9.32" HC="0.10" NOx="0.80" PMx="0.02" fuel="1.05" electricity="0.00" noise="63.43" route="!vehicle_0" type="CarType" waiting="0.00" lane="edge1_0" pos="390.36" speed="11.99" angle="90.00" x="95.09" y="-176.46"/>
        <vehicle id="vehicle_1" eclass="HBEFA3/PC_G_EU4" CO2="4424.00" CO="32.54" HC="0.25" NOx="1.67" PMx="0.07" fuel="1.90" electricity="0.00" noise="66.42" route="route_1" type="CarType" waiting="0.00" lane="-edge2_0" pos="439.61" speed="14.65" angle="101.35" x="170.78" y="-153.95"/>
    </timestep>
    <timestep time="35.00">
        <vehicle id="vehicle_0" eclass="HBEFA3/PC_G_EU4" CO2="4302.76" CO="42.81" HC="0.29" NOx="1.66" PMx="0.06" fuel="1.85" electricity="0.00" noise="65.44" route="!vehicle_0" type="CarType" waiting="0.00" lane="edge1_0" pos="402.98" speed="12.62" angle="90.00" x="107.71" y="-176.46"/>
        <vehicle id="vehicle_1" eclass="HBEFA3/PC_G_EU4" CO2="0.00" CO="0.00" HC="0.00" NOx="0.00" PMx="0.00" fuel="0.00" electricity="0.00" noise="64.82" route="route_1" type="CarType" waiting="0.00" lane="-edge2_0" pos="454.17" speed="14.56" angle="101.35" x="185.05" y="-156.81"/>
    </timestep>
    <timestep time="36.00">
        <vehicle id="vehicle_0" eclass="HBEFA3/PC_G_EU4" CO2="2819.57" CO="11.06" HC="0.11" NOx="0.96" PMx="0.03" fuel="1.21" electricity="0.00" noise="64.23" route="!vehicle_0" type="CarType" waiting="0.00" lane="edge1_0" pos="415.77" speed="12.79" angle="90.00" x="120.50" y="-176.46"/>
        <vehicle id="vehicle_1" eclass="HBEFA3/PC_G_EU4" CO2="0.00" CO="0.00" HC="0.00" NOx="0.00" PMx="0.00" fuel="0.00" electricity="0.00" noise="63.47" route="route_1" type="CarType" waiting="0.00" lane="-edge2_0" pos="468.14" speed="13.97" angle="101.35" x="198.75" y="-159.56"/>
    </timestep>
    <timestep time="37.00">
        <vehicle id="vehicle_0" eclass="HBEFA3/PC_G_EU4" CO2="0.00" CO="0.00" HC="0.00" NOx="0.00" PMx="0.00" fuel="0.00" electricity="0.00" noise="63.45" route="!vehicle_0" type="CarType" waiting="0.00" lane="edge1_0" pos="428.45" speed="12.68" angle="90.00" x="133.18" y="-176.46"/>
        <vehicle id="vehicle_1" eclass="HBEFA3/PC_G_EU4" CO2="0.00" CO="0.00" HC="0.00" NOx="0.00" PMx="0.00" fuel="0.00" electricity="0.00" noise="64.02" route="route_1" type="CarType" waiting="0.00" lane="-edge2_0" pos="481.90" speed="13.76" angle="101.35" x="212.25" y="-162.27"/>
    </timestep>
    <timestep time="38.00">
        <vehicle id="vehicle_0" eclass="HBEFA3/PC_G_EU4" CO2="0.00" CO="0.00" HC="0.00" NOx="0.00" PMx="0.00" fuel="0.00" electricity="0.00" noise="61.99" route="!vehicle_0" type="CarType" waiting="0.00" lane="edge1_0" pos="440.56" speed="12.10" angle="90.00" x="145.29" y="-176.46"/>
        <vehicle id="vehicle_1" eclass="HBEFA3/PC_G_EU4" CO2="5373.35" CO="52.65" HC="0.37" NOx="2.12" PMx="0.09" fuel="2.31" electricity="0.00" noise="67.11" route="route_1" type="CarType" waiting="0.00" lane="-edge2_0" pos="496.45" speed="14.55" angle="101.35" x="226.51" y="-165.13"/>
    </timestep>
    <timestep time="39.00">
        <vehicle id="vehicle_0" eclass="HBEFA3/PC_G_EU4" CO2="2617.83" CO="10.96" HC="0.11" NOx="0.88" PMx="0.02" fuel="1.13" electricity="0.00" noise="63.72" route="!vehicle_0" type="CarType" waiting="0.00" lane="edge1_0" pos="452.79" speed="12.23" angle="90.00" x="157.52" y="-176.46"/>
        <vehicle id="vehicle_1" eclass="HBEFA3/PC_G_EU4" CO2="0.00" CO="0.00" HC="0.00" NOx="0.00" PMx="0.00" fuel="0.00" electricity="0.00" noise="62.59" route="route_1" type="CarType" waiting="0.00" lane="-edge2_0" pos="510.04" speed="13.59" angle="101.35" x="239.83" y="-167.81"/>
    </timestep>
    <timestep time="40.00">
        <vehicle id="vehicle_0" eclass="HBEFA3/PC_G_EU4" CO2="3677.06" CO="29.60" HC="0.22" NOx="1.37" PMx="0.05" fuel="1.58" electricity="0.00" noise="64.88" route="!vehicle_0" type="CarType" waiting="0.00" lane="edge1_0" pos="465.45" speed="12.66" angle="90.00" x="170.18" y="-176.46"/>
        <vehicle id="vehicle_1" eclass="HBEFA3/PC_G_EU4" CO2="0.00" CO="0.00" HC="0.00" NOx="0.00" PMx="0.00" fuel="0.00" electricity="0.00" noise="56.84" route="route_1" type="CarType" waiting="0.00" lane="-edge2_0" pos="519.81" speed="9.77" angle="101.35" x="249.41" y="-169.73"/>
    </timestep>
    <timestep time="41.00">
        <vehicle id="vehicle_0" eclass="HBEFA3/PC_G_EU4" CO2="0.00" CO="0.00" HC="0.00" NOx="0.00" PMx="0.00" fuel="0.00" electricity="0.00" noise="63.57" route="!vehicle_0" type="CarType" waiting="0.00" lane="edge1_0" pos="478.07" speed="12.62" angle="90.00" x="182.80" y="-176.46"/>
        <vehicle id="vehicle_1" eclass="HBEFA3/PC_G_EU4" CO2="0.00" CO="0.00" HC="0.00" NOx="0.00" PMx="0.00" fuel="0.00" electricity="0.00" noise="49.74" route="route_1" type="CarType" waiting="0.00" lane=":node2_1_0" pos="3.66" speed="5.49" angle="102.68" x="254.77" y="-170.92"/>
    </timestep>
    <timestep time="42.00">
        <vehicle id="vehicle_0" eclass="HBEFA3/PC_G_EU4" CO2="0.00" CO="0.00" HC="0.00" NOx="0.00" PMx="0.00" fuel="0.00" electricity="0.00" noise="61.70" route="!vehicle_0" type="CarType" waiting="0.00" lane="edge1_0" pos="490.03" speed="11.95" angle="90.00" x="194.76" y="-176.46"/>
        <vehicle id="vehicle_1" eclass="HBEFA3/PC_G_EU4" CO2="3895.14" CO="93.25" HC="0.51" NOx="1.63" PMx="0.07" fuel="1.67" electricity="0.00" noise="63.44" route="route_1" type="CarType" waiting="0.00" lane=":node2_1_0" pos="10.19" speed="6.54" angle="154.00" x="257.12" y="-173.01"/>
    </timestep>
    <timestep time="43.00">
        <vehicle id="vehicle_0" eclass="HBEFA3/PC_G_EU4" CO2="4761.77" CO="51.60" HC="0.35" NOx="1.88" PMx="0.08" fuel="2.05" electricity="0.00" noise="65.92" route="!vehicle_0" type="CarType" waiting="0.00" lane="edge1_0" pos="502.74" speed="12.71" angle="90.00" x="207.47" y="-176.46"/>
        <vehicle id="vehicle_1" eclass="HBEFA3/PC_G_EU4" CO2="0.00" CO="0.00" HC="0.00" NOx="0.00" PMx="0.00" fuel="0.00" electricity="0.00" noise="57.60" route="route_1" type="CarType" waiting="0.00" lane=":node2_1_0" pos="16.33" speed="6.14" angle="268.11" x="250.99" y="-173.26"/>
    </timestep>
    <timestep time="44.00">
        <vehicle id="vehicle_0" eclass="HBEFA3/PC_G_EU4" CO2="0.00" CO="0.00" HC="0.00" NOx="0.00" PMx="0.00" fuel="0.00" electricity="0.00" noise="62.05" route="!vehicle_0" type="CarType" waiting="0.00" lane="edge1_0" pos="514.88" speed="12.15" angle="90.00" x="219.61" y="-176.46"/>
        <vehicle id="vehicle_1" eclass="HBEFA3/PC_G_EU4" CO2="0.00" CO="0.00" HC="0.00" NOx="0.00" PMx="0.00" fuel="0.00" electricity="0.00" noise="56.82" route="route_1" type="CarType" waiting="0.00" lane="-edge1_0" pos="5.52" speed="5.62" angle="270.00" x="245.37" y="-173.26"/>
    </timestep>
    <timestep time="45.00">
        <vehicle id="vehicle_0" eclass="HBEFA3/PC_G_EU4" CO2="0.00" CO="0.00" HC="0.00" NOx="0.00" PMx="0.00" fuel="0.00" electricity="0.00" noise="62.07" route="!vehicle_0" type="CarType" waiting="0.00" lane="edge1_0" pos="526.63" speed="11.74" angle="90.00" x="231.36" y="-176.46"/>
        <vehicle id="vehicle_1" eclass="HBEFA3/PC_G_EU4" CO2="5459.51" CO="115.53" HC="0.65" NOx="2.34" PMx="0.11" fuel="2.35" electricity="0.00" noise="66.79" route="route_1" type="CarType" waiting="0.00" lane="-edge1_0" pos="12.90" speed="7.37" angle="270.00" x="237.99" y="-173.26"/>
    </timestep>
    <timestep time="46.00">