<?xml version="1.0" encoding="UTF-8"?>

<!-- generated on 11/12/20 21:23:01 by Eclipse SUMO GUI Version 1.7.0
<configuration xmlns:xsi="http://www.w3.org/2001/XMLSchema-instance" xsi:noNamespaceSchemaLocation="http://sumo.dlr.de/xsd/sumoConfiguration.xsd">

    <input>
        <net-file value="C:\Users\Sandrus\Documents\Research\SUMO\SUMO_DEMOS\Emissions\ThreeEdges_OneCar\threeEdges_OneCar.net.xml"/>
        <route-files value="C:\Users\Sandrus\Documents\Research\SUMO\SUMO_DEMOS\Emissions\ThreeEdges_OneCar\threeEdges_Onecar.rou.xml"/>
    </input>

    <output>
        <emission-output value="C:\Users\Sandrus\Documents\Research\SUMO\SUMO_DEMOS\Emissions\ThreeEdges_OneCar\threeEdges_OneCar_emission_output.xml"/>
        <emission-output.precision value="0"/>
        <fcd-output value="C:\Users\Sandrus\Documents\Research\SUMO\SUMO_DEMOS\Emissions\ThreeEdges_OneCar\threeEdges_OneCar.fcd.xml"/>
        <tripinfo-output value="C:\Users\Sandrus\Documents\Research\SUMO\SUMO_DEMOS\Emissions\ThreeEdges_OneCar\threeEdges_OneCar_info.xml"/>
    </output>

    <emissions>
        <device.emissions.probability value="1"/>
    </emissions>

</configuration>
-->

<emission-export xmlns:xsi="http://www.w3.org/2001/XMLSchema-instance" xsi:noNamespaceSchemaLocation="http://sumo.dlr.de/xsd/emission_file.xsd">
    <timestep time="0.00">
        <vehicle id="vehicle_0" eclass="HBEFA3/PC_G_EU4" CO2="2625" CO="165" HC="1" NOx="1" PMx="0" fuel="1" electricity="0" noise="56" route="!vehicle_0" type="CarType" waiting="0" lane="edge1_0" pos="5" speed="0" angle="90" x="-290" y="-176"/>
        <vehicle id="vehicle_1" eclass="HBEFA3/PC_G_EU4" CO2="2625" CO="165" HC="1" NOx="1" PMx="0" fuel="1" electricity="0" noise="56" route="route_1" type="CarType" waiting="0" lane="-edge2_0" pos="5" speed="0" angle="101" x="-255" y="-68"/>
    </timestep>
    <timestep time="1.00">
        <vehicle id="vehicle_0" eclass="HBEFA3/PC_G_EU4" CO2="3467" CO="148" HC="1" NOx="2" PMx="0" fuel="1" electricity="0" noise="66" route="!vehicle_0" type="CarType" waiting="0" lane="edge1_0" pos="7" speed="2" angle="90" x="-288" y="-176"/>
        <vehicle id="vehicle_1" eclass="HBEFA3/PC_G_EU4" CO2="3791" CO="150" HC="1" NOx="2" PMx="0" fuel="2" electricity="0" noise="67" route="route_1" type="CarType" waiting="0" lane="-edge2_0" pos="7" speed="2" angle="101" x="-253" y="-69"/>
    </timestep>
    <timestep time="2.00">
        <vehicle id="vehicle_0" eclass="HBEFA3/PC_G_EU4" CO2="4262" CO="135" HC="1" NOx="2" PMx="0" fuel="2" electricity="0" noise="66" route="!vehicle_0" type="CarType" waiting="0" lane="edge1_0" pos="11" speed="4" angle="90" x="-284" y="-176"/>
        <vehicle id="vehicle_1" eclass="HBEFA3/PC_G_EU4" CO2="3667" CO="125" HC="1" NOx="2" PMx="0" fuel="2" electricity="0" noise="64" route="route_1" type="CarType" waiting="0" lane="-edge2_0" pos="11" speed="4" angle="101" x="-249" y="-70"/>
    </timestep>
    <timestep time="3.00">
        <vehicle id="vehicle_0" eclass="HBEFA3/PC_G_EU4" CO2="6476" CO="146" HC="1" NOx="3" PMx="0" fuel="3" electricity="0" noise="70" route="!vehicle_0" type="CarType" waiting="0" lane="edge1_0" pos="18" speed="7" angle="90" x="-278" y="-176"/>
        <vehicle id="vehicle_1" eclass="HBEFA3/PC_G_EU4" CO2="6104" CO="142" HC="1" NOx="3" PMx="0" fuel="3" electricity="0" noise="69" route="route_1" type="CarType" waiting="0" lane="-edge2_0" pos="17" speed="6" angle="101" x="-243" y="-71"/>
    </timestep>
    <timestep time="4.00">
        <vehicle id="vehicle_0" eclass="HBEFA3/PC_G_EU4" CO2="5812" CO="113" HC="1" NOx="2" PMx="0" fuel="2" electricity="0" noise="67" route="!vehicle_0" type="CarType" waiting="0" lane="edge1_0" pos="26" speed="8" angle="90" x="-269" y="-176"/>
        <vehicle id="vehicle_1" eclass="HBEFA3/PC_G_EU4" CO2="6015" CO="119" HC="1" NOx="3" PMx="0" fuel="3" electricity="0" noise="68" route="route_1" type="CarType" waiting="0" lane="-edge2_0" pos="26" speed="8" angle="101" x="-235" y="-72"/>
    </timestep>
    <timestep time="5.00">
        <vehicle id="vehicle_0" eclass="HBEFA3/PC_G_EU4" CO2="5700" CO="96" HC="1" NOx="2" PMx="0" fuel="2" electricity="0" noise="67" route="!vehicle_0" type="CarType" waiting="0" lane="edge1_0" pos="36" speed="10" angle="90" x="-260" y="-176"/>
        <vehicle id="vehicle_1" eclass="HBEFA3/PC_G_EU4" CO2="8363" CO="144" HC="1" NOx="4" PMx="0" fuel="4" electricity="0" noise="71" route="route_1" type="CarType" waiting="0" lane="-edge2_0" pos="36" speed="10" angle="101" x="-225" y="-75"/>
    </timestep>
    <timestep time="6.00">
        <vehicle id="vehicle_0" eclass="HBEFA3/PC_G_EU4" CO2="7145" CO="111" HC="1" NOx="3" PMx="0" fuel="3" electricity="0" noise="69" route="!vehicle_0" type="CarType" waiting="0" lane="edge1_0" pos="47" speed="11" angle="90" x="-248" y="-176"/>
        <vehicle id="vehicle_1" eclass="HBEFA3/PC_G_EU4" CO2="9063" CO="142" HC="1" NOx="4" PMx="0" fuel="4" electricity="0" noise="71" route="route_1" type="CarType" waiting="0" lane="-edge2_0" pos="48" speed="12" angle="101" x="-213" y="-77"/>
    </timestep>
    <timestep time="7.00">
        <vehicle id="vehicle_0" eclass="HBEFA3/PC_G_EU4" CO2="4474" CO="50" HC="0" NOx="2" PMx="0" fuel="2" electricity="0" noise="65" route="!vehicle_0" type="CarType" waiting="0" lane="edge1_0" pos="59" speed="12" angle="90" x="-236" y="-176"/>
        <vehicle id="vehicle_1" eclass="HBEFA3/PC_G_EU4" CO2="6073" CO="73" HC="0" NOx="2" PMx="0" fuel="3" electricity="0" noise="67" route="route_1" type="CarType" waiting="0" lane="-edge2_0" pos="62" speed="14" angle="101" x="-199" y="-80"/>
    </timestep>
    <timestep time="8.00">
        <vehicle id="vehicle_0" eclass="HBEFA3/PC_G_EU4" CO2="0" CO="0" HC="0" NOx="0" PMx="0" fuel="0" electricity="0" noise="62" route="!vehicle_0" type="CarType" waiting="0" lane="edge1_0" pos="71" speed="12" angle="90" x="-224" y="-176"/>
        <vehicle id="vehicle_1" eclass="HBEFA3/PC_G_EU4" CO2="3524" CO="18" HC="0" NOx="1" PMx="0" fuel="2" electricity="0" noise="65" route="route_1" type="CarType" waiting="0" lane="-edge2_0" pos="76" speed="14" angle="101" x="-186" y="-82"/>
    </timestep>
    <timestep time="9.00">
        <vehicle id="vehicle_0" eclass="HBEFA3/PC_G_EU4" CO2="3354" CO="26" HC="0" NOx="1" PMx="0" fuel="1" electricity="0" noise="64" route="!vehicle_0" type="CarType" waiting="0" lane="edge1_0" pos="83" speed="12" angle="90" x="-212" y="-176"/>
        <vehicle id="vehicle_1" eclass="HBEFA3/PC_G_EU4" CO2="0" CO="0" HC="0" NOx="0" PMx="0" fuel="0" electricity="0" noise="64" route="route_1" type="CarType" waiting="0" lane="-edge2_0" pos="89" speed="14" angle="101" x="-173" y="-85"/>
    </timestep>
    <timestep time="10.00">
        <vehicle id="vehicle_0" eclass="HBEFA3/PC_G_EU4" CO2="3439" CO="26" HC="0" NOx="1" PMx="0" fuel="1" electricity="0" noise="65" route="!vehicle_0" type="CarType" waiting="0" lane="edge1_0" pos="96" speed="13" angle="90" x="-200" y="-176"/>
        <vehicle id="vehicle_1" eclass="HBEFA3/PC_G_EU4" CO2="2351" CO="0" HC="0" NOx="1" PMx="0" fuel="1" electricity="0" noise="64" route="route_1" type="CarType" waiting="0" lane="-edge2_0" pos="103" speed="14" angle="101" x="-159" y="-88"/>
    </timestep>
    <timestep time="11.00">
        <vehicle id="vehicle_0" eclass="HBEFA3/PC_G_EU4" CO2="0" CO="0" HC="0" NOx="0" PMx="0" fuel="0" electricity="0" noise="61" route="!vehicle_0" type="CarType" waiting="0" lane="edge1_0" pos="107" speed="12" angle="90" x="-188" y="-176"/>
        <vehicle id="vehicle_1" eclass="HBEFA3/PC_G_EU4" CO2="2564" CO="0" HC="0" NOx="1" PMx="0" fuel="1" electricity="0" noise="65" route="route_1" type="CarType" waiting="0" lane="-edge2_0" pos="117" speed="14" angle="101" x="-146" y="-90"/>
    </timestep>
    <timestep time="12.00">
        <vehicle id="vehicle_0" eclass="HBEFA3/PC_G_EU4" CO2="4322" CO="44" HC="0" NOx="2" PMx="0" fuel="2" electricity="0" noise="65" route="!vehicle_0" type="CarType" waiting="0" lane="edge1_0" pos="120" speed="12" angle="90" x="-175" y="-176"/>
        <vehicle id="vehicle_1" eclass="HBEFA3/PC_G_EU4" CO2="5613" CO="58" HC="0" NOx="2" PMx="0" fuel="2" electricity="0" noise="67" route="route_1" type="CarType" waiting="0" lane="-edge2_0" pos="131" speed="15" angle="101" x="-132" y="-93"/>
    </timestep>
    <timestep time="13.00">
        <vehicle id="vehicle_0" eclass="HBEFA3/PC_G_EU4" CO2="0" CO="0" HC="0" NOx="0" PMx="0" fuel="0" electricity="0" noise="63" route="!vehicle_0" type="CarType" waiting="0" lane="edge1_0" pos="132" speed="12" angle="90" x="-163" y="-176"/>
        <vehicle id="vehicle_1" eclass="HBEFA3/PC_G_EU4" CO2="0" CO="0" HC="0" NOx="0" PMx="0" fuel="0" electricity="0" noise="64" route="route_1" type="CarType" waiting="0" lane="-edge2_0" pos="146" speed="14" angle="101" x="-118" y="-96"/>
    </timestep>
    <timestep time="14.00">
        <vehicle id="vehicle_0" eclass="HBEFA3/PC_G_EU4" CO2="0" CO="0" HC="0" NOx="0" PMx="0" fuel="0" electricity="0" noise="62" route="!vehicle_0" type="CarType" waiting="0" lane="edge1_0" pos="144" speed="12" angle="90" x="-151" y="-176"/>
        <vehicle id="vehicle_1" eclass="HBEFA3/PC_G_EU4" CO2="0" CO="0" HC="0" NOx="0" PMx="0" fuel="0" electricity="0" noise="64" route="route_1" type="CarType" waiting="0" lane="-edge2_0" pos="160" speed="14" angle="101" x="-104" y="-99"/>
    </timestep>
    <timestep time="15.00">
        <vehicle id="vehicle_0" eclass="HBEFA3/PC_G_EU4" CO2="3233" CO="24" HC="0" NOx="1" PMx="0" fuel="1" electricity="0" noise="64" route="!vehicle_0" type="CarType" waiting="0" lane="edge1_0" pos="156" speed="12" angle="90" x="-139" y="-176"/>
        <vehicle id="vehicle_1" eclass="HBEFA3/PC_G_EU4" CO2="0" CO="0" HC="0" NOx="0" PMx="0" fuel="0" electricity="0" noise="64" route="route_1" type="CarType" waiting="0" lane="-edge2_0" pos="174" speed="14" angle="101" x="-90" y="-102"/>
    </timestep>
    <timestep time="16.00">
        <vehicle id="vehicle_0" eclass="HBEFA3/PC_G_EU4" CO2="0" CO="0" HC="0" NOx="0" PMx="0" fuel="0" electricity="0" noise="63" route="!vehicle_0" type="CarType" waiting="0" lane="edge1_0" pos="168" speed="12" angle="90" x="-127" y="-176"/>
        <vehicle id="vehicle_1" eclass="HBEFA3/PC_G_EU4" CO2="5400" CO="52" HC="0" NOx="2" PMx="0" fuel="2" electricity="0" noise="67" route="route_1" type="CarType" waiting="0" lane="-edge2_0" pos="188" speed="15" angle="101" x="-76" y="-104"/>
    </timestep>
    <timestep time="17.00">
        <vehicle id="vehicle_0" eclass="HBEFA3/PC_G_EU4" CO2="0" CO="0" HC="0" NOx="0" PMx="0" fuel="0" electricity="0" noise="63" route="!vehicle_0" type="CarType" waiting="0" lane="edge1_0" pos="180" speed="12" angle="90" x="-115" y="-176"/>
        <vehicle id="vehicle_1" eclass="HBEFA3/PC_G_EU4" CO2="0" CO="0" HC="0" NOx="0" PMx="0" fuel="0" electricity="0" noise="63" route="route_1" type="CarType" waiting="0" lane="-edge2_0" pos="202" speed="14" angle="101" x="-62" y="-107"/>
    </timestep>
    <timestep time="18.00">
        <vehicle id="vehicle_0" eclass="HBEFA3/PC_G_EU4" CO2="6126" CO="78" HC="0" NOx="3" PMx="0" fuel="3" electricity="0" noise="67" route="!vehicle_0" type="CarType" waiting="0" lane="edge1_0" pos="193" speed="13" angle="90" x="-102" y="-176"/>
        <vehicle id="vehicle_1" eclass="HBEFA3/PC_G_EU4" CO2="2907" CO="6" HC="0" NOx="1" PMx="0" fuel="1" electricity="0" noise="65" route="route_1" type="CarType" waiting="0" lane="-edge2_0" pos="216" speed="14" angle="101" x="-49" y="-110"/>
    </timestep>
    <timestep time="19.00">
        <vehicle id="vehicle_0" eclass="HBEFA3/PC_G_EU4" CO2="0" CO="0" HC="0" NOx="0" PMx="0" fuel="0" electricity="0" noise="62" route="!vehicle_0" type="CarType" waiting="0" lane="edge1_0" pos="205" speed="12" angle="90" x="-90" y="-176"/>
        <vehicle id="vehicle_1" eclass="HBEFA3/PC_G_EU4" CO2="3702" CO="20" HC="0" NOx="1" PMx="0" fuel="2" electricity="0" noise="66" route="route_1" type="CarType" waiting="0" lane="-edge2_0" pos="230" speed="14" angle="101" x="-35" y="-113"/>
    </timestep>
    <timestep time="20.00">
        <vehicle id="vehicle_0" eclass="HBEFA3/PC_G_EU4" CO2="5191" CO="58" HC="0" NOx="2" PMx="0" fuel="2" electricity="0" noise="66" route="!vehicle_0" type="CarType" waiting="0" lane="edge1_0" pos="218" speed="13" angle="90" x="-77" y="-176"/>
        <vehicle id="vehicle_1" eclass="HBEFA3/PC_G_EU4" CO2="0" CO="0" HC="0" NOx="0" PMx="0" fuel="0" electricity="0" noise="63" route="route_1" type="CarType" waiting="0" lane="-edge2_0" pos="244" speed="14" angle="101" x="-21" y="-115"/>
    </timestep>
    <timestep time="21.00">
        <vehicle id="vehicle_0" eclass="HBEFA3/PC_G_EU4" CO2="0" CO="0" HC="0" NOx="0" PMx="0" fuel="0" electricity="0" noise="63" route="!vehicle_0" type="CarType" waiting="0" lane="edge1_0" pos="231" speed="13" angle="90" x="-65" y="-176"/>
        <vehicle id="vehicle_1" eclass="HBEFA3/PC_G_EU4" CO2="3618" CO="19" HC="0" NOx="1" PMx="0" fuel="2" electricity="0" noise="66" route="route_1" type="CarType" waiting="0" lane="-edge2_0" pos="258" speed="14" angle="101" x="-7" y="-118"/>
    </timestep>
    <timestep time="22.00">
        <vehicle id="vehicle_0" eclass="HBEFA3/PC_G_EU4" CO2="0" CO="0" HC="0" NOx="0" PMx="0" fuel="0" electricity="0" noise="64" route="!vehicle_0" type="CarType" waiting="0" lane="edge1_0" pos="243" speed="13" angle="90" x="-52" y="-176"/>
        <vehicle id="vehicle_1" eclass="HBEFA3/PC_G_EU4" CO2="0" CO="0" HC="0" NOx="0" PMx="0" fuel="0" electricity="0" noise="63" route="route_1" type="CarType" waiting="0" lane="-edge2_0" pos="271" speed="13" angle="101" x="6" y="-121"/>
    </timestep>
    <timestep time="23.00">
        <vehicle id="vehicle_0" eclass="HBEFA3/PC_G_EU4" CO2="2602" CO="7" HC="0" NOx="1" PMx="0" fuel="1" electricity="0" noise="64" route="!vehicle_0" type="CarType" waiting="0" lane="edge1_0" pos="256" speed="13" angle="90" x="-39" y="-176"/>
        <vehicle id="vehicle_1" eclass="HBEFA3/PC_G_EU4" CO2="2656" CO="3" HC="0" NOx="1" PMx="0" fuel="1" electricity="0" noise="65" route="route_1" type="CarType" waiting="0" lane="-edge2_0" pos="285" speed="14" angle="101" x="19" y="-124"/>
    </timestep>
    <timestep time="24.00">
        <vehicle id="vehicle_0" eclass="HBEFA3/PC_G_EU4" CO2="0" CO="0" HC="0" NOx="0" PMx="0" fuel="0" electricity="0" noise="63" route="!vehicle_0" type="CarType" waiting="0" lane="edge1_0" pos="268" speed="13" angle="90" x="-27" y="-176"/>
        <vehicle id="vehicle_1" eclass="HBEFA3/PC_G_EU4" CO2="2897" CO="7" HC="0" NOx="1" PMx="0" fuel="1" electricity="0" noise="65" route="route_1" type="CarType" waiting="0" lane="-edge2_0" pos="299" speed="14" angle="101" x="33" y="-126"/>
    </timestep>
    <timestep time="25.00">
        <vehicle id="vehicle_0" eclass="HBEFA3/PC_G_EU4" CO2="0" CO="0" HC="0" NOx="0" PMx="0" fuel="0" electricity="0" noise="62" route="!vehicle_0" type="CarType" waiting="0" lane="edge1_0" pos="281" speed="12" angle="90" x="-15" y="-176"/>
        <vehicle id="vehicle_1" eclass="HBEFA3/PC_G_EU4" CO2="4030" CO="27" HC="0" NOx="1" PMx="0" fuel="2" electricity="0" noise="66" route="route_1" type="CarType" waiting="0" lane="-edge2_0" pos="313" speed="14" angle="101" x="47" y="-129"/>
    </timestep>
    <timestep time="26.00">
        <vehicle id="vehicle_0" eclass="HBEFA3/PC_G_EU4" CO2="0" CO="0" HC="0" NOx="0" PMx="0" fuel="0" electricity="0" noise="63" route="!vehicle_0" type="CarType" waiting="0" lane="edge1_0" pos="293" speed="12" angle="90" x="-3" y="-176"/>
        <vehicle id="vehicle_1" eclass="HBEFA3/PC_G_EU4" CO2="0" CO="0" HC="0" NOx="0" PMx="0" fuel="0" electricity="0" noise="65" route="route_1" type="CarType" waiting="0" lane="-edge2_0" pos="327" speed="14" angle="101" x="60" y="-132"/>
    </timestep>
    <timestep time="27.00">
        <vehicle id="vehicle_0" eclass="HBEFA3/PC_G_EU4" CO2="2825" CO="16" HC="0" NOx="1" PMx="0" fuel="1" electricity="0" noise="64" route="!vehicle_0" type="CarType" waiting="0" lane="edge1_0" pos="305" speed="12" angle="90" x="9" y="-176"/>
        <vehicle id="vehicle_1" eclass="HBEFA3/PC_G_EU4" CO2="2880" CO="3" HC="0" NOx="1" PMx="0" fuel="1" electricity="0" noise="65" route="route_1" type="CarType" waiting="0" lane="-edge2_0" pos="341" speed="14" angle="101" x="74" y="-135"/>
    </timestep>
    <timestep time="28.00">
        <vehicle id="vehicle_0" eclass="HBEFA3/PC_G_EU4" CO2="3692" CO="31" HC="0" NOx="1" PMx="0" fuel="2" electricity="0" noise="65" route="!vehicle_0" type="CarType" waiting="0" lane="edge1_0" pos="317" speed="13" angle="90" x="22" y="-176"/>
        <vehicle id="vehicle_1" eclass="HBEFA3/PC_G_EU4" CO2="0" CO="0" HC="0" NOx="0" PMx="0" fuel="0" electricity="0" noise="64" route="route_1" type="CarType" waiting="0" lane="-edge2_0" pos="355" speed="14" angle="101" x="88" y="-137"/>
    </timestep>
    <timestep time="29.00">
        <vehicle id="vehicle_0" eclass="HBEFA3/PC_G_EU4" CO2="0" CO="0" HC="0" NOx="0" PMx="0" fuel="0" electricity="0" noise="62" route="!vehicle_0" type="CarType" waiting="0" lane="edge1_0" pos="329" speed="12" angle="90" x="34" y="-176"/>
        <vehicle id="vehicle_1" eclass="HBEFA3/PC_G_EU4" CO2="0" CO="0" HC="0" NOx="0" PMx="0" fuel="0" electricity="0" noise="63" route="route_1" type="CarType" waiting="0" lane="-edge2_0" pos="369" speed="14" angle="101" x="101" y="-140"/>
    </timestep>
    <timestep time="30.00">
        <vehicle id="vehicle_0" eclass="HBEFA3/PC_G_EU4" CO2="3792" CO="33" HC="0" NOx="1" PMx="0" fuel="2" electricity="0" noise="65" route="!vehicle_0" type="CarType" waiting="0" lane="edge1_0" pos="342" speed="13" angle="90" x="46" y="-176"/>
        <vehicle id="vehicle_1" eclass="HBEFA3/PC_G_EU4" CO2="5241" CO="51" HC="0" NOx="2" PMx="0" fuel="2" electricity="0" noise="67" route="route_1" type="CarType" waiting="0" lane="-edge2_0" pos="383" speed="14" angle="101" x="116" y="-143"/>
    </timestep>
    <timestep time="31.00">
        <vehicle id="vehicle_0" eclass="HBEFA3/PC_G_EU4" CO2="3230" CO="19" HC="0" NOx="1" PMx="0" fuel="1" electricity="0" noise="65" route="!vehicle_0" type="CarType" waiting="0" lane="edge1_0" pos="355" speed="13" angle="90" x="59" y="-176"/>
        <vehicle id="vehicle_1" eclass="HBEFA3/PC_G_EU4" CO2="0" CO="0" HC="0" NOx="0" PMx="0" fuel="0" electricity="0" noise="64" route="route_1" type="CarType" waiting="0" lane="-edge2_0" pos="397" speed="14" angle="101" x="129" y="-146"/>
    </timestep>
    <timestep time="32.00">
        <vehicle id="vehicle_0" eclass="HBEFA3/PC_G_EU4" CO2="0" CO="0" HC="0" NOx="0" PMx="0" fuel="0" electricity="0" noise="61" route="!vehicle_0" type="CarType" waiting="0" lane="edge1_0" pos="366" speed="12" angle="90" x="71" y="-176"/>
        <vehicle id="vehicle_1" eclass="HBEFA3/PC_G_EU4" CO2="0" CO="0" HC="0" NOx="0" PMx="0" fuel="0" electricity="0" noise="63" route="route_1" type="CarType" waiting="0" lane="-edge2_0" pos="411" speed="14" angle="101" x="143" y="-148"/>
    </timestep>
    <timestep time="33.00">
        <vehicle id="vehicle_0" eclass="HBEFA3/PC_G_EU4" CO2="2232" CO="5" HC="0" NOx="1" PMx="0" fuel="1" electricity="0" noise="63" route="!vehicle_0" type="CarType" waiting="0" lane="edge1_0" pos="378" speed="12" angle="90" x="83" y="-176"/>
        <vehicle id="vehicle_1" eclass="HBEFA3/PC_G_EU4" CO2="4585" CO="39" HC="0" NOx="2" PMx="0" fuel="2" electricity="0" noise="66" route="route_1" type="CarType" waiting="0" lane="-edge2_0" pos="425" speed="14" angle="101" x="156" y="-151"/>
    </timestep>
    <timestep time="34.00">
        <vehicle id="vehicle_0" eclass="HBEFA3/PC_G_EU4" CO2="2451" CO="9" HC="0" NOx="1" PMx="0" fuel="1" electricity="0" noise="63" route="!vehicle_0" type="CarType" waiting="0" lane="edge1_0" pos="390" speed="12" angle="90" x="95" y="-176"/>
        <vehicle id="vehicle_1" eclass="HBEFA3/PC_G_EU4" CO2="4424" CO="33" HC="0" NOx="2" PMx="0" fuel="2" electricity="0" noise="66" route="route_1" type="CarType" waiting="0" lane="-edge2_0" pos="440" speed="15" angle="101" x="171" y="-154"/>
    </timestep>
    <timestep time="35.00">
        <vehicle id="vehicle_0" eclass="HBEFA3/PC_G_EU4" CO2="4303" CO="43" HC="0" NOx="2" PMx="0" fuel="2" electricity="0" noise="65" route="!vehicle_0" type="CarType" waiting="0" lane="edge1_0" pos="403" speed="13" angle="90" x="108" y="-176"/>
        <vehicle id="vehicle_1" eclass="HBEFA3/PC_G_EU4" CO2="0" CO="0" HC="0" NOx="0" PMx="0" fuel="0" electricity="0" noise="65" route="route_1" type="CarType" waiting="0" lane="-edge2_0" pos="454" speed="15" angle="101" x="185" y="-157"/>
    </timestep>
    <timestep time="36.00">
        <vehicle id="vehicle_0" eclass="HBEFA3/PC_G_EU4" CO2="2820" CO="11" HC="0" NOx="1" PMx="0" fuel="1" electricity="0" noise="64" route="!vehicle_0" type="CarType" waiting="0" lane="edge1_0" pos="416" speed="13" angle="90" x="121" y="-176"/>
        <vehicle id="vehicle_1" eclass="HBEFA3/PC_G_EU4" CO2="0" CO="0" HC="0" NOx="0" PMx="0" fuel="0" electricity="0" noise="63" route="route_1" type="CarType" waiting="0" lane="-edge2_0" pos="468" speed="14" angle="101" x="199" y="-160"/>
    </timestep>
    <timestep time="37.00">
        <vehicle id="vehicle_0" eclass="HBEFA3/PC_G_EU4" CO2="0" CO="0" HC="0" NOx="0" PMx="0" fuel="0" electricity="0" noise="63" route="!vehicle_0" type="CarType" waiting="0" lane="edge1_0" pos="428" speed="13" angle="90" x="133" y="-176"/>
        <vehicle id="vehicle_1" eclass="HBEFA3/PC_G_EU4" CO2="0" CO="0" HC="0" NOx="0" PMx="0" fuel="0" electricity="0" noise="64" route="route_1" type="CarType" waiting="0" lane="-edge2_0" pos="482" speed="14" angle="101" x="212" y="-162"/>
    </timestep>
    <timestep time="38.00">
        <vehicle id="vehicle_0" eclass="HBEFA3/PC_G_EU4" CO2="0" CO="0" HC="0" NOx="0" PMx="0" fuel="0" electricity="0" noise="62" route="!vehicle_0" type="CarType" waiting="0" lane="edge1_0" pos="441" speed="12" angle="90" x="145" y="-176"/>
        <vehicle id="vehicle_1" eclass="HBEFA3/PC_G_EU4" CO2="5373" CO="53" HC="0" NOx="2" PMx="0" fuel="2" electricity="0" noise="67" route="route_1" type="CarType" waiting="0" lane="-edge2_0" pos="496" speed="15" angle="101" x="227" y="-165"/>
    </timestep>
    <timestep time="39.00">
        <vehicle id="vehicle_0" eclass="HBEFA3/PC_G_EU4" CO2="2618" CO="11" HC="0" NOx="1" PMx="0" fuel="1" electricity="0" noise="64" route="!vehicle_0" type="CarType" waiting="0" lane="edge1_0" pos="453" speed="12" angle="90" x="158" y="-176"/>
        <vehicle id="vehicle_1" eclass="HBEFA3/PC_G_EU4" CO2="0" CO="0" HC="0" NOx="0" PMx="0" fuel="0" electricity="0" noise="63" route="route_1" type="CarType" waiting="0" lane="-edge2_0" pos="510" speed="14" angle="101" x="240" y="-168"/>
    </timestep>
    <timestep time="40.00">
        <vehicle id="vehicle_0" eclass="HBEFA3/PC_G_EU4" CO2="3677" CO="30" HC="0" NOx="1" PMx="0" fuel="2" electricity="0" noise="65" route="!vehicle_0" type="CarType" waiting="0" lane="edge1_0" pos="465" speed="13" angle="90" x="170" y="-176"/>
        <vehicle id="vehicle_1" eclass="HBEFA3/PC_G_EU4" CO2="0" CO="0" HC="0" NOx="0" PMx="0" fuel="0" electricity="0" noise="57" route="route_1" type="CarType" waiting="0" lane="-edge2_0" pos="520" speed="10" angle="101" x="249" y="-170"/>
    </timestep>
    <timestep time="41.00">
        <vehicle id="vehicle_0" eclass="HBEFA3/PC_G_EU4" CO2="0" CO="0" HC="0" NOx="0" PMx="0" fuel="0" electricity="0" noise="64" route="!vehicle_0" type="CarType" waiting="0" lane="edge1_0" pos="478" speed="13" angle="90" x="183" y="-176"/>
        <vehicle id="vehicle_1" eclass="HBEFA3/PC_G_EU4" CO2="0" CO="0" HC="0" NOx="0" PMx="0" fuel="0" electricity="0" noise="50" route="route_1" type="CarType" waiting="0" lane=":node2_1_0" pos="4" speed="5" angle="103" x="255" y="-171"/>
    </timestep>
    <timestep time="42.00">
        <vehicle id="vehicle_0" eclass="HBEFA3/PC_G_EU4" CO2="0" CO="0" HC="0" NOx="0" PMx="0" fuel="0" electricity="0" noise="62" route="!vehicle_0" type="CarType" waiting="0" lane="edge1_0" pos="490" speed="12" angle="90" x="195" y="-176"/>
        <vehicle id="vehicle_1" eclass="HBEFA3/PC_G_EU4" CO2="3895" CO="93" HC="1" NOx="2" PMx="0" fuel="2" electricity="0" noise="63" route="route_1" type="CarType" waiting="0" lane=":node2_1_0" pos="10" speed="7" angle="154" x="257" y="-173"/>
    </timestep>
    <timestep time="43.00">
        <vehicle id="vehicle_0" eclass="HBEFA3/PC_G_EU4" CO2="4762" CO="52" HC="0" NOx="2" PMx="0" fuel="2" electricity="0" noise="66" route="!vehicle_0" type="CarType" waiting="0" lane="edge1_0" pos="503" speed="13" angle="90" x="207" y="-176"/>
        <vehicle id="vehicle_1" eclass="HBEFA3/PC_G_EU4" CO2="0" CO="0" HC="0" NOx="0" PMx="0" fuel="0" electricity="0" noise="58" route="route_1" type="CarType" waiting="0" lane=":node2_1_0" pos="16" speed="6" angle="268" x="251" y="-173"/>
    </timestep>
    <timestep time="44.00">
        <vehicle id="vehicle_0" eclass="HBEFA3/PC_G_EU4" CO2="0" CO="0" HC="0" NOx="0" PMx="0" fuel="0" electricity="0" noise="62" route="!vehicle_0" type="CarType" waiting="0" lane="edge1_0" pos="515" speed="12" angle="90" x="220" y="-176"/>
        <vehicle id="vehicle_1" eclass="HBEFA3/PC_G_EU4" CO2="0" CO="0" HC="0" NOx="0" PMx="0" fuel="0" electricity="0" noise="57" route="route_1" type="CarType" waiting="0" lane="-edge1_0" pos="6" speed="6" angle="270" x="245" y="-173"/>
    </timestep>
    <timestep time="45.00">
        <vehicle id="vehicle_0" eclass="HBEFA3/PC_G_EU4" CO2="0" CO="0" HC="0" NOx="0" PMx="0" fuel="0" electricity="0" noise="62" route="!vehicle_0" type="CarType" waiting="0" lane="edge1_0" pos="527" speed="12" angle="90" x="231" y="-176"/>
        <vehicle id="vehicle_1" eclass="HBEFA3/PC_G_EU4" CO2="5460" CO="116" HC="1" NOx="2" PMx="0" fuel="2" electricity="0" noise="67" route="route_1" type="CarType" waiting="0" lane="-edge1_0" pos="13" speed="7" angle="270" x="238" y="-173"/>
    </timestep>
    <timestep time="46.00">
        <vehicle id="vehicle_0" eclass="HBEFA3/PC_G_EU4" CO2="2863" CO="18" HC="0" NOx="1" PMx="0" fuel="1" electricity="0" noise="64" route="!vehicle_0" type="CarType" waiting="0" lane="edge1_0" pos="539" speed="12" angle="90" x="243" y="-176"/>
        <vehicle id="vehicle_1" eclass="HBEFA3/PC_G_EU4" CO2="6707" CO="121" HC="1" NOx="3" PMx="0" fuel="3" electricity="0" noise="68" route="route_1" type="CarType" waiting="0" lane="-edge1_0" pos="22" speed="9" angle="270" x="229" y="-173"/>
    </timestep>
    <timestep time="47.00">
        <vehicle id="vehicle_0" eclass="HBEFA3/PC_G_EU4" CO2="0" CO="0" HC="0" NOx="0" PMx="0" fuel="0" electricity="0" noise="53" route="!vehicle_0" type="CarType" waiting="0" lane="edge1_0" pos="546" speed="7" angle="90" x="251" y="-176"/>
        <vehicle id="vehicle_1" eclass="HBEFA3/PC_G_EU4" CO2="8357" CO="136" HC="1" NOx="4" PMx="0" fuel="4" electricity="0" noise="70" route="route_1" type="CarType" waiting="0" lane="-edge1_0" pos="34" speed="11" angle="270" x="217" y="-173"/>
    </timestep>
    <timestep time="48.00">
        <vehicle id="vehicle_0" eclass="HBEFA3/PC_G_EU4" CO2="0" CO="0" HC="0" NOx="0" PMx="0" fuel="0" electricity="0" noise="51" route="!vehicle_0" type="CarType" waiting="0" lane=":node2_0_0" pos="5" speed="5" angle="55" x="255" y="-174"/>
        <vehicle id="vehicle_1" eclass="HBEFA3/PC_G_EU4" CO2="7606" CO="108" HC="1" NOx="3" PMx="0" fuel="3" electricity="0" noise="69" route="route_1" type="CarType" waiting="0" lane="-edge1_0" pos="46" speed="13" angle="270" x="204" y="-173"/>
    </timestep>
    <timestep time="49.00">
        <vehicle id="vehicle_0" eclass="HBEFA3/PC_G_EU4" CO2="0" CO="0" HC="0" NOx="0" PMx="0" fuel="0" electricity="0" noise="55" route="!vehicle_0" type="CarType" waiting="0" lane=":node2_0_0" pos="9" speed="4" angle="7" x="255" y="-170"/>
        <vehicle id="vehicle_1" eclass="HBEFA3/PC_G_EU4" CO2="5051" CO="51" HC="0" NOx="2" PMx="0" fuel="2" electricity="0" noise="67" route="route_1" type="CarType" waiting="0" lane="-edge1_0" pos="60" speed="14" angle="270" x="191" y="-173"/>
    </timestep>
    <timestep time="50.00">
        <vehicle id="vehicle_0" eclass="HBEFA3/PC_G_EU4" CO2="2472" CO="92" HC="0" NOx="1" PMx="0" fuel="1" electricity="0" noise="59" route="!vehicle_0" type="CarType" waiting="0" lane=":node2_0_0" pos="13" speed="4" angle="318" x="252" y="-167"/>
        <vehicle id="vehicle_1" eclass="HBEFA3/PC_G_EU4" CO2="4199" CO="30" HC="0" NOx="2" PMx="0" fuel="2" electricity="0" noise="66" route="route_1" type="CarType" waiting="0" lane="-edge1_0" pos="74" speed="14" angle="270" x="176" y="-173"/>
    </timestep>
    <timestep time="51.00">
        <vehicle id="vehicle_0" eclass="HBEFA3/PC_G_EU4" CO2="3344" CO="99" HC="1" NOx="1" PMx="0" fuel="1" electricity="0" noise="62" route="!vehicle_0" type="CarType" waiting="0" lane="edge2_0" pos="5" speed="5" angle="281" x="247" y="-166"/>
        <vehicle id="vehicle_1" eclass="HBEFA3/PC_G_EU4" CO2="0" CO="0" HC="0" NOx="0" PMx="0" fuel="0" electricity="0" noise="64" route="route_1" type="CarType" waiting="0" lane="-edge1_0" pos="88" speed="14" angle="270" x="163" y="-173"/>
    </timestep>
    <timestep time="52.00">
        <vehicle id="vehicle_0" eclass="HBEFA3/PC_G_EU4" CO2="4600" CO="106" HC="1" NOx="2" PMx="0" fuel="2" electricity="0" noise="65" route="!vehicle_0" type="CarType" waiting="0" lane="edge2_0" pos="12" speed="7" angle="281" x="240" y="-165"/>
        <vehicle id="vehicle_1" eclass="HBEFA3/PC_G_EU4" CO2="3646" CO="19" HC="0" NOx="1" PMx="0" fuel="2" electricity="0" noise="66" route="route_1" type="CarType" waiting="0" lane="-edge1_0" pos="102" speed="14" angle="270" x="148" y="-173"/>
    </timestep>
    <timestep time="53.00">
        <vehicle id="vehicle_0" eclass="HBEFA3/PC_G_EU4" CO2="8375" CO="155" HC="1" NOx="4" PMx="0" fuel="4" electricity="0" noise="71" route="!vehicle_0" type="CarType" waiting="0" lane="edge2_0" pos="21" speed="9" angle="281" x="231" y="-163"/>