<?xml version="1.0" encoding="UTF-8"?>

<!-- generated on 11/12/20 22:09:15 by Eclipse SUMO GUI Version 1.7.0
<configuration xmlns:xsi="http://www.w3.org/2001/XMLSchema-instance" xsi:noNamespaceSchemaLocation="http://sumo.dlr.de/xsd/sumoConfiguration.xsd">

    <input>
        <net-file value="C:\Users\Sandrus\Documents\Research\SUMO\SUMO_DEMOS\Emissions\ThreeEdges_OneCar\threeEdges_OneCar.net.xml"/>
        <route-files value="C:\Users\Sandrus\Documents\Research\SUMO\SUMO_DEMOS\Emissions\ThreeEdges_OneCar\threeEdges_Onecar.rou.xml"/>
    </input>

    <output>
        <emission-output value="C:\Users\Sandrus\Documents\Research\SUMO\SUMO_DEMOS\Emissions\ThreeEdges_OneCar\threeEdges_OneCar_emission_output.xml"/>
        <emission-output.precision value="2"/>
        <battery-output value="C:\Users\Sandrus\Documents\Research\SUMO\SUMO_DEMOS\Emissions\ThreeEdges_OneCar\threeEdges_OneCar_battery_output.xml"/>
        <elechybrid-output value="C:\Users\Sandrus\Documents\Research\SUMO\SUMO_DEMOS\Emissions\ThreeEdges_OneCar\threeEdges_OneCar_elechybrid.xml"/>
        <chargingstations-output value="C:\Users\Sandrus\Documents\Research\SUMO\SUMO_DEMOS\Emissions\ThreeEdges_OneCar\threeEdges_OneCar_chargingstations.xml"/>
        <substations-output value="C:\Users\Sandrus\Documents\Research\SUMO\SUMO_DEMOS\Emissions\ThreeEdges_OneCar\threeEdges_OneCar_substations.xml"/>
        <fcd-output value="C:\Users\Sandrus\Documents\Research\SUMO\SUMO_DEMOS\Emissions\ThreeEdges_OneCar\threeEdges_OneCar.fcd.xml"/>
        <tripinfo-output value="C:\Users\Sandrus\Documents\Research\SUMO\SUMO_DEMOS\Emissions\ThreeEdges_OneCar\threeEdges_OneCar_info.xml"/>
    </output>

    <emissions>
        <device.emissions.probability value="1"/>
    </emissions>

    <battery>
        <device.battery.probability value="1"/>
    </battery>

</configuration>
-->

<fcd-export xmlns:xsi="http://www.w3.org/2001/XMLSchema-instance" xsi:noNamespaceSchemaLocation="http://sumo.dlr.de/xsd/fcd_file.xsd">
    <timestep time="0.00">
        <vehicle id="vehicle_0" x="-290.17" y="-176.46" angle="90.00" type="CarType" speed="0.00" pos="5.10" lane="edge1_0" slope="0.00"/>
        <vehicle id="vehicle_1" x="-255.24" y="-68.43" angle="101.35" type="CarType" speed="0.00" pos="5.10" lane="-edge2_0" slope="0.00"/>
    </timestep>
    <timestep time="1.00">
        <vehicle id="vehicle_0" x="-288.14" y="-176.46" angle="90.00" type="CarType" speed="2.03" pos="7.13" lane="edge1_0" slope="0.00"/>
        <vehicle id="vehicle_1" x="-252.95" y="-68.89" angle="101.35" type="CarType" speed="2.34" pos="7.44" lane="-edge2_0" slope="0.00"/>
    </timestep>
    <timestep time="2.00">
        <vehicle id="vehicle_0" x="-284.16" y="-176.46" angle="90.00" type="CarType" speed="3.98" pos="11.11" lane="edge1_0" slope="0.00"/>
        <vehicle id="vehicle_1" x="-249.24" y="-69.64" angle="101.35" type="CarType" speed="3.78" pos="11.22" lane="-edge2_0" slope="0.00"/>
    </timestep>
    <timestep time="3.00">
        <vehicle id="vehicle_0" x="-277.61" y="-176.46" angle="90.00" type="CarType" speed="6.54" pos="17.66" lane="edge1_0" slope="0.00"/>
        <vehicle id="vehicle_1" x="-243.13" y="-70.87" angle="101.35" type="CarType" speed="6.23" pos="17.45" lane="-edge2_0" slope="0.00"/>
        <vehicle id="vehicle_electric" x="-255.24" y="-68.43" angle="101.35" type="electricCar" speed="0.00" pos="5.10" lane="-edge2_0" slope="0.00"/>
    </timestep>
    <timestep time="4.00">
        <vehicle id="vehicle_0" x="-269.34" y="-176.46" angle="90.00" type="CarType" speed="8.27" pos="25.93" lane="edge1_0" slope="0.00"/>
        <vehicle id="vehicle_1" x="-235.19" y="-72.46" angle="101.35" type="CarType" speed="8.09" pos="25.55" lane="-edge2_0" slope="0.00"/>
        <vehicle id="vehicle_electric" x="-252.98" y="-68.89" angle="101.35" type="electricCar" speed="2.30" pos="7.40" lane="-edge2_0" slope="0.00"/>
    </timestep>
    <timestep time="5.00">
        <vehicle id="vehicle_0" x="-259.65" y="-176.46" angle="90.00" type="CarType" speed="9.69" pos="35.62" lane="edge1_0" slope="0.00"/>
        <vehicle id="vehicle_1" x="-225.20" y="-74.46" angle="101.35" type="CarType" speed="10.19" pos="35.74" lane="-edge2_0" slope="0.00"/>
        <vehicle id="vehicle_electric" x="-249.32" y="-69.62" angle="101.35" type="electricCar" speed="3.74" pos="11.14" lane="-edge2_0" slope="0.00"/>
    </timestep>
    <timestep time="6.00">
        <vehicle id="vehicle_0" x="-248.28" y="-176.46" angle="90.00" type="CarType" speed="11.37" pos="46.99" lane="edge1_0" slope="0.00"/>
        <vehicle id="vehicle_1" x="-213.47" y="-76.82" angle="101.35" type="CarType" speed="11.96" pos="47.70" lane="-edge2_0" slope="0.00"/>
        <vehicle id="vehicle_electric" x="-244.21" y="-70.65" angle="101.35" type="electricCar" speed="5.21" pos="16.35" lane="-edge2_0" slope="0.00"/>
        <vehicle id="vehicle_zeroEmissions" x="-255.24" y="-68.43" angle="101.35" type="electricCarZeroEmissions" speed="0.00" pos="5.10" lane="-edge2_0" slope="0.00"/>
    </timestep>
    <timestep time="7.00">
        <vehicle id="vehicle_0" x="-235.24" y="-176.46" angle="90.00" type="CarType" speed="13.03" pos="60.03" lane="edge1_0" slope="0.00"/>
        <vehicle id="vehicle_1" x="-200.29" y="-79.46" angle="101.35" type="CarType" speed="13.44" pos="61.14" lane="-edge2_0" slope="0.00"/>
        <vehicle id="vehicle_electric" x="-237.57" y="-71.98" angle="101.35" type="electricCar" speed="6.77" pos="23.12" lane="-edge2_0" slope="0.00"/>
        <vehicle id="vehicle_zeroEmissions" x="-252.88" y="-68.91" angle="101.35" type="electricCarZeroEmissions" speed="2.40" pos="7.50" lane="-edge2_0" slope="0.00"/>
    </timestep>
    <timestep time="8.00">
        <vehicle id="vehicle_0" x="-221.42" y="-176.46" angle="90.00" type="CarType" speed="13.83" pos="73.85" lane="edge1_0" slope="0.00"/>
        <vehicle id="vehicle_1" x="-186.29" y="-82.27" angle="101.35" type="CarType" speed="14.28" pos="75.42" lane="-edge2_0" slope="0.00"/>
        <vehicle id="vehicle_electric" x="-228.94" y="-73.71" angle="101.35" type="electricCar" speed="8.80" pos="31.92" lane="-edge2_0" slope="0.00"/>
        <vehicle id="vehicle_zeroEmissions" x="-248.79" y="-69.73" angle="101.35" type="electricCarZeroEmissions" speed="4.18" pos="11.68" lane="-edge2_0" slope="0.00"/>
    </timestep>
    <timestep time="9.00">
        <vehicle id="vehicle_0" x="-207.23" y="-176.46" angle="90.00" type="CarType" speed="14.19" pos="88.04" lane="edge1_0" slope="0.00"/>
        <vehicle id="vehicle_1" x="-171.90" y="-85.16" angle="101.35" type="CarType" speed="14.68" pos="90.10" lane="-edge2_0" slope="0.00"/>
        <vehicle id="vehicle_electric" x="-218.74" y="-75.76" angle="101.35" type="electricCar" speed="10.41" pos="42.33" lane="-edge2_0" slope="0.00"/>
        <vehicle id="vehicle_zeroEmissions" x="-242.96" y="-70.90" angle="101.35" type="electricCarZeroEmissions" speed="5.94" pos="17.63" lane="-edge2_0" slope="0.00"/>
    </timestep>
    <timestep time="10.00">
        <vehicle id="vehicle_0" x="-192.67" y="-176.46" angle="90.00" type="CarType" speed="14.56" pos="102.60" lane="edge1_0" slope="0.00"/>
        <vehicle id="vehicle_1" x="-157.93" y="-87.97" angle="101.35" type="CarType" speed="14.25" pos="104.34" lane="-edge2_0" slope="0.00"/>
        <vehicle id="vehicle_electric" x="-206.95" y="-78.13" angle="101.35" type="electricCar" speed="12.02" pos="54.35" lane="-edge2_0" slope="0.00"/>
        <vehicle id="vehicle_zeroEmissions" x="-235.21" y="-72.45" angle="101.35" type="electricCarZeroEmissions" speed="7.90" pos="25.53" lane="-edge2_0" slope="0.00"/>
    </timestep>
    <timestep time="11.00">
        <vehicle id="vehicle_0" x="-178.86" y="-176.46" angle="90.00" type="CarType" speed="13.81" pos="116.41" lane="edge1_0" slope="0.00"/>
        <vehicle id="vehicle_1" x="-144.74" y="-90.61" angle="101.35" type="CarType" speed="13.46" pos="117.80" lane="-edge2_0" slope="0.00"/>
        <vehicle id="vehicle_electric" x="-195.32" y="-80.46" angle="101.35" type="electricCar" speed="11.86" pos="66.21" lane="-edge2_0" slope="0.00"/>
        <vehicle id="vehicle_zeroEmissions" x="-225.90" y="-74.32" angle="101.35" type="electricCarZeroEmissions" speed="9.49" pos="35.02" lane="-edge2_0" slope="0.00"/>
    </timestep>
    <timestep time="12.00">
        <vehicle id="vehicle_0" x="-164.40" y="-176.46" angle="90.00" type="CarType" speed="14.46" pos="130.87" lane="edge1_0" slope="0.00"/>
        <vehicle id="vehicle_1" x="-130.85" y="-93.40" angle="101.35" type="CarType" speed="14.17" pos="131.97" lane="-edge2_0" slope="0.00"/>
        <vehicle id="vehicle_electric" x="-183.15" y="-82.90" angle="101.35" type="electricCar" speed="12.41" pos="78.62" lane="-edge2_0" slope="0.00"/>
        <vehicle id="vehicle_zeroEmissions" x="-214.52" y="-76.61" angle="101.35" type="electricCarZeroEmissions" speed="11.61" pos="46.63" lane="-edge2_0" slope="0.00"/>
    </timestep>
    <timestep time="13.00">
        <vehicle id="vehicle_0" x="-150.21" y="-176.46" angle="90.00" type="CarType" speed="14.19" pos="145.06" lane="edge1_0" slope="0.00"/>
        <vehicle id="vehicle_1" x="-117.01" y="-96.18" angle="101.35" type="CarType" speed="14.12" pos="146.09" lane="-edge2_0" slope="0.00"/>
        <vehicle id="vehicle_electric" x="-171.51" y="-85.24" angle="101.35" type="electricCar" speed="11.87" pos="90.50" lane="-edge2_0" slope="0.00"/>
        <vehicle id="vehicle_zeroEmissions" x="-201.15" y="-79.29" angle="101.35" type="electricCarZeroEmissions" speed="13.64" pos="60.27" lane="-edge2_0" slope="0.00"/>
    </timestep>
    <timestep time="14.00">
        <vehicle id="vehicle_0" x="-136.34" y="-176.46" angle="90.00" type="CarType" speed="13.87" pos="158.93" lane="edge1_0" slope="0.00"/>
        <vehicle id="vehicle_1" x="-103.20" y="-98.95" angle="101.35" type="CarType" speed="14.08" pos="160.17" lane="-edge2_0" slope="0.00"/>
        <vehicle id="vehicle_electric" x="-159.91" y="-87.57" angle="101.35" type="electricCar" speed="11.83" pos="102.33" lane="-edge2_0" slope="0.00"/>
        <vehicle id="vehicle_zeroEmissions" x="-187.98" y="-81.93" angle="101.35" type="electricCarZeroEmissions" speed="13.44" pos="73.70" lane="-edge2_0" slope="0.00"/>
    </timestep>
    <timestep time="15.00">
        <vehicle id="vehicle_0" x="-122.14" y="-176.46" angle="90.00" type="CarType" speed="14.20" pos="173.13" lane="edge1_0" slope="0.00"/>
        <vehicle id="vehicle_1" x="-88.83" y="-101.84" angle="101.35" type="CarType" speed="14.65" pos="174.82" lane="-edge2_0" slope="0.00"/>
        <vehicle id="vehicle_electric" x="-147.30" y="-90.10" angle="101.35" type="electricCar" speed="12.87" pos="115.19" lane="-edge2_0" slope="0.00"/>
        <vehicle id="vehicle_zeroEmissions" x="-174.95" y="-84.55" angle="101.35" type="electricCarZeroEmissions" speed="13.28" pos="86.99" lane="-edge2_0" slope="0.00"/>
    </timestep>
    <timestep time="16.00">
        <vehicle id="vehicle_0" x="-108.11" y="-176.46" angle="90.00" type="CarType" speed="14.03" pos="187.16" lane="edge1_0" slope="0.00"/>
        <vehicle id="vehicle_1" x="-75.34" y="-104.54" angle="101.35" type="CarType" speed="13.76" pos="188.59" lane="-edge2_0" slope="0.00"/>
        <vehicle id="vehicle_electric" x="-134.69" y="-92.63" angle="101.35" type="electricCar" speed="12.86" pos="128.05" lane="-edge2_0" slope="0.00"/>
        <vehicle id="vehicle_zeroEmissions" x="-162.31" y="-87.09" angle="101.35" type="electricCarZeroEmissions" speed="12.90" pos="99.88" lane="-edge2_0" slope="0.00"/>
    </timestep>
    <timestep time="17.00">
        <vehicle id="vehicle_0" x="-94.25" y="-176.46" angle="90.00" type="CarType" speed="13.86" pos="201.02" lane="edge1_0" slope="0.00"/>
        <vehicle id="vehicle_1" x="-62.15" y="-107.19" angle="101.35" type="CarType" speed="13.45" pos="202.04" lane="-edge2_0" slope="0.00"/>
        <vehicle id="vehicle_electric" x="-122.94" y="-94.99" angle="101.35" type="electricCar" speed="11.98" pos="140.03" lane="-edge2_0" slope="0.00"/>
        <vehicle id="vehicle_zeroEmissions" x="-149.56" y="-89.65" angle="101.35" type="electricCarZeroEmissions" speed="13.00" pos="112.88" lane="-edge2_0" slope="0.00"/>
    </timestep>
    <timestep time="18.00">
        <vehicle id="vehicle_0" x="-79.25" y="-176.46" angle="90.00" type="CarType" speed="15.00" pos="216.02" lane="edge1_0" slope="0.00"/>
        <vehicle id="vehicle_1" x="-48.39" y="-109.95" angle="101.35" type="CarType" speed="14.03" pos="216.07" lane="-edge2_0" slope="0.00"/>
        <vehicle id="vehicle_electric" x="-111.31" y="-97.32" angle="101.35" type="electricCar" speed="11.86" pos="151.90" lane="-edge2_0" slope="0.00"/>
        <vehicle id="vehicle_zeroEmissions" x="-136.51" y="-92.27" angle="101.35" type="electricCarZeroEmissions" speed="13.32" pos="126.20" lane="-edge2_0" slope="0.00"/>
    </timestep>
    <timestep time="19.00">
        <vehicle id="vehicle_0" x="-65.10" y="-176.46" angle="90.00" type="CarType" speed="14.15" pos="230.17" lane="edge1_0" slope="0.00"/>
        <vehicle id="vehicle_1" x="-35.11" y="-112.62" angle="101.35" type="CarType" speed="13.54" pos="229.61" lane="-edge2_0" slope="0.00"/>
        <vehicle id="vehicle_electric" x="-99.00" y="-99.79" angle="101.35" type="electricCar" speed="12.55" pos="164.45" lane="-edge2_0" slope="0.00"/>
        <vehicle id="vehicle_zeroEmissions" x="-124.10" y="-94.76" angle="101.35" type="electricCarZeroEmissions" speed="12.65" pos="138.85" lane="-edge2_0" slope="0.00"/>
    </timestep>
    <timestep time="20.00">
        <vehicle id="vehicle_0" x="-50.09" y="-176.46" angle="90.00" type="CarType" speed="15.01" pos="245.18" lane="edge1_0" slope="0.00"/>
        <vehicle id="vehicle_1" x="-20.89" y="-115.47" angle="101.35" type="CarType" speed="14.51" pos="244.12" lane="-edge2_0" slope="0.00"/>
        <vehicle id="vehicle_electric" x="-86.28" y="-102.35" angle="101.35" type="electricCar" speed="12.97" pos="177.42" lane="-edge2_0" slope="0.00"/>
        <vehicle id="vehicle_zeroEmissions" x="-110.46" y="-97.49" angle="101.35" type="electricCarZeroEmissions" speed="13.91" pos="152.76" lane="-edge2_0" slope="0.00"/>
    </timestep>
    <timestep time="21.00">
        <vehicle id="vehicle_0" x="-35.53" y="-176.46" angle="90.00" type="CarType" speed="14.56" pos="259.74" lane="edge1_0" slope="0.00"/>
        <vehicle id="vehicle_1" x="-6.84" y="-118.29" angle="101.35" type="CarType" speed="14.33" pos="258.45" lane="-edge2_0" slope="0.00"/>
        <vehicle id="vehicle_electric" x="-74.35" y="-104.74" angle="101.35" type="electricCar" speed="12.17" pos="189.59" lane="-edge2_0" slope="0.00"/>
        <vehicle id="vehicle_zeroEmissions" x="-97.65" y="-100.07" angle="101.35" type="electricCarZeroEmissions" speed="13.07" pos="165.83" lane="-edge2_0" slope="0.00"/>
    </timestep>
    <timestep time="22.00">
        <vehicle id="vehicle_0" x="-20.98" y="-176.46" angle="90.00" type="CarType" speed="14.56" pos="274.29" lane="edge1_0" slope="0.00"/>
        <vehicle id="vehicle_1" x="7.45" y="-121.16" angle="101.35" type="CarType" speed="14.57" pos="273.02" lane="-edge2_0" slope="0.00"/>
        <vehicle id="vehicle_electric" x="-61.86" y="-107.25" angle="101.35" type="electricCar" speed="12.73" pos="202.33" lane="-edge2_0" slope="0.00"/>
        <vehicle id="vehicle_zeroEmissions" x="-84.82" y="-102.64" angle="101.35" type="electricCarZeroEmissions" speed="13.08" pos="178.91" lane="-edge2_0" slope="0.00"/>
    </timestep>
    <timestep time="23.00">
        <vehicle id="vehicle_0" x="-6.31" y="-176.46" angle="90.00" type="CarType" speed="14.66" pos="288.96" lane="edge1_0" slope="0.00"/>
        <vehicle id="vehicle_1" x="21.18" y="-123.92" angle="101.35" type="CarType" speed="14.00" pos="287.02" lane="-edge2_0" slope="0.00"/>
        <vehicle id="vehicle_electric" x="-49.36" y="-109.76" angle="101.35" type="electricCar" speed="12.75" pos="215.08" lane="-edge2_0" slope="0.00"/>
        <vehicle id="vehicle_zeroEmissions" x="-71.43" y="-105.33" angle="101.35" type="electricCarZeroEmissions" speed="13.67" pos="192.58" lane="-edge2_0" slope="0.00"/>
    </timestep>
    <timestep time="24.00">
        <vehicle id="vehicle_0" x="8.22" y="-176.46" angle="90.00" type="CarType" speed="14.53" pos="303.49" lane="edge1_0" slope="0.00"/>
        <vehicle id="vehicle_1" x="34.83" y="-126.66" angle="101.35" type="CarType" speed="13.93" pos="300.95" lane="-edge2_0" slope="0.00"/>
        <vehicle id="vehicle_electric" x="-37.48" y="-112.14" angle="101.35" type="electricCar" speed="12.11" pos="227.19" lane="-edge2_0" slope="0.00"/>
        <vehicle id="vehicle_zeroEmissions" x="-59.15" y="-107.79" angle="101.35" type="electricCarZeroEmissions" speed="12.52" pos="205.10" lane="-edge2_0" slope="0.00"/>
    </timestep>
    <timestep time="25.00">
        <vehicle id="vehicle_0" x="22.34" y="-176.46" angle="90.00" type="CarType" speed="14.12" pos="317.61" lane="edge1_0" slope="0.00"/>
        <vehicle id="vehicle_1" x="48.49" y="-129.40" angle="101.35" type="CarType" speed="13.93" pos="314.88" lane="-edge2_0" slope="0.00"/>
        <vehicle id="vehicle_electric" x="-25.84" y="-114.48" angle="101.35" type="electricCar" speed="11.87" pos="239.07" lane="-edge2_0" slope="0.00"/>
        <vehicle id="vehicle_zeroEmissions" x="-47.14" y="-110.20" angle="101.35" type="electricCarZeroEmissions" speed="12.25" pos="217.35" lane="-edge2_0" slope="0.00"/>
    </timestep>
    <timestep time="26.00">
        <vehicle id="vehicle_0" x="36.27" y="-176.46" angle="90.00" type="CarType" speed="13.94" pos="331.54" lane="edge1_0" slope="0.00"/>
        <vehicle id="vehicle_1" x="62.27" y="-132.17" angle="101.35" type="CarType" speed="14.06" pos="328.94" lane="-edge2_0" slope="0.00"/>
        <vehicle id="vehicle_electric" x="-13.10" y="-117.04" angle="101.35" type="electricCar" speed="13.00" pos="252.07" lane="-edge2_0" slope="0.00"/>
        <vehicle id="vehicle_zeroEmissions" x="-35.17" y="-112.61" angle="101.35" type="electricCarZeroEmissions" speed="12.21" pos="229.55" lane="-edge2_0" slope="0.00"/>
    </timestep>
    <timestep time="27.00">
        <vehicle id="vehicle_0" x="50.41" y="-176.46" angle="90.00" type="CarType" speed="14.13" pos="345.68" lane="edge1_0" slope="0.00"/>
        <vehicle id="vehicle_1" x="75.94" y="-134.91" angle="101.35" type="CarType" speed="13.95" pos="342.88" lane="-edge2_0" slope="0.00"/>
        <vehicle id="vehicle_electric" x="-1.32" y="-119.40" angle="101.35" type="electricCar" speed="12.01" pos="264.08" lane="-edge2_0" slope="0.00"/>
        <vehicle id="vehicle_zeroEmissions" x="-22.04" y="-115.24" angle="101.35" type="electricCarZeroEmissions" speed="13.39" pos="242.94" lane="-edge2_0" slope="0.00"/>
    </timestep>
    <timestep time="28.00">
        <vehicle id="vehicle_0" x="64.98" y="-176.46" angle="90.00" type="CarType" speed="14.58" pos="360.25" lane="edge1_0" slope="0.00"/>
        <vehicle id="vehicle_1" x="89.79" y="-137.69" angle="101.35" type="CarType" speed="14.13" pos="357.01" lane="-edge2_0" slope="0.00"/>
        <vehicle id="vehicle_electric" x="10.45" y="-121.76" angle="101.35" type="electricCar" speed="12.01" pos="276.08" lane="-edge2_0" slope="0.00"/>
        <vehicle id="vehicle_zeroEmissions" x="-10.93" y="-117.47" angle="101.35" type="electricCarZeroEmissions" speed="11.34" pos="254.28" lane="-edge2_0" slope="0.00"/>
    </timestep>
    <timestep time="29.00">
        <vehicle id="vehicle_0" x="79.02" y="-176.46" angle="90.00" type="CarType" speed="14.04" pos="374.29" lane="edge1_0" slope="0.00"/>
        <vehicle id="vehicle_1" x="103.65" y="-140.47" angle="101.35" type="CarType" speed="14.13" pos="371.14" lane="-edge2_0" slope="0.00"/>
        <vehicle id="vehicle_electric" x="22.85" y="-124.25" angle="101.35" type="electricCar" speed="12.65" pos="288.73" lane="-edge2_0" slope="0.00"/>
        <vehicle id="vehicle_zeroEmissions" x="1.04" y="-119.88" angle="101.35" type="electricCarZeroEmissions" speed="12.21" pos="266.49" lane="-edge2_0" slope="0.00"/>
    </timestep>
    <timestep time="30.00">
        <vehicle id="vehicle_0" x="93.54" y="-176.46" angle="90.00" type="CarType" speed="14.52" pos="388.81" lane="edge1_0" slope="0.00"/>
        <vehicle id="vehicle_1" x="117.84" y="-143.32" angle="101.35" type="CarType" speed="14.47" pos="385.61" lane="-edge2_0" slope="0.00"/>
        <vehicle id="vehicle_electric" x="35.12" y="-126.72" angle="101.35" type="electricCar" speed="12.51" pos="301.24" lane="-edge2_0" slope="0.00"/>
        <vehicle id="vehicle_zeroEmissions" x="13.46" y="-122.37" angle="101.35" type="electricCarZeroEmissions" speed="12.67" pos="279.15" lane="-edge2_0" slope="0.00"/>
    </timestep>
    <timestep time="31.00">
        <vehicle id="vehicle_0" x="108.36" y="-176.46" angle="90.00" type="CarType" speed="14.81" pos="403.63" lane="edge1_0" slope="0.00"/>
        <vehicle id="vehicle_1" x="131.02" y="-145.97" angle="101.35" type="CarType" speed="13.45" pos="399.06" lane="-edge2_0" slope="0.00"/>
        <vehicle id="vehicle_electric" x="47.67" y="-129.23" angle="101.35" type="electricCar" speed="12.80" pos="314.04" lane="-edge2_0" slope="0.00"/>
        <vehicle id="vehicle_zeroEmissions" x="26.12" y="-124.91" angle="101.35" type="electricCarZeroEmissions" speed="12.91" pos="292.06" lane="-edge2_0" slope="0.00"/>
    </timestep>
    <timestep time="32.00">
        <vehicle id="vehicle_0" x="122.26" y="-176.46" angle="90.00" type="CarType" speed="13.90" pos="417.53" lane="edge1_0" slope="0.00"/>
        <vehicle id="vehicle_1" x="144.77" y="-148.73" angle="101.35" type="CarType" speed="14.02" pos="413.08" lane="-edge2_0" slope="0.00"/>
        <vehicle id="vehicle_electric" x="59.75" y="-131.66" angle="101.35" type="electricCar" speed="12.33" pos="326.37" lane="-edge2_0" slope="0.00"/>
        <vehicle id="vehicle_zeroEmissions" x="38.29" y="-127.35" angle="101.35" type="electricCarZeroEmissions" speed="12.41" pos="304.47" lane="-edge2_0" slope="0.00"/>
    </timestep>
    <timestep time="33.00">
        <vehicle id="vehicle_0" x="136.17" y="-176.46" angle="90.00" type="CarType" speed="13.92" pos="431.44" lane="edge1_0" slope="0.00"/>
        <vehicle id="vehicle_1" x="158.81" y="-151.54" angle="101.35" type="CarType" speed="14.32" pos="427.40" lane="-edge2_0" slope="0.00"/>
        <vehicle id="vehicle_electric" x="71.57" y="-134.03" angle="101.35" type="electricCar" speed="12.06" pos="338.43" lane="-edge2_0" slope="0.00"/>
        <vehicle id="vehicle_zeroEmissions" x="49.84" y="-129.67" angle="101.35" type="electricCarZeroEmissions" speed="11.78" pos="316.25" lane="-edge2_0" slope="0.00"/>
    </timestep>
    <timestep time="34.00">
        <vehicle id="vehicle_0" x="150.17" y="-176.46" angle="90.00" type="CarType" speed="14.00" pos="445.44" lane="edge1_0" slope="0.00"/>
        <vehicle id="vehicle_1" x="172.21" y="-154.23" angle="101.35" type="CarType" speed="13.66" pos="441.07" lane="-edge2_0" slope="0.00"/>
        <vehicle id="vehicle_electric" x="84.11" y="-136.55" angle="101.35" type="electricCar" speed="12.79" pos="351.21" lane="-edge2_0" slope="0.00"/>
        <vehicle id="vehicle_zeroEmissions" x="61.52" y="-132.01" angle="101.35" type="electricCarZeroEmissions" speed="11.91" pos="328.17" lane="-edge2_0" slope="0.00"/>
    </timestep>
    <timestep time="35.00">
        <vehicle id="vehicle_0" x="164.80" y="-176.46" angle="90.00" type="CarType" speed="14.62" pos="460.07" lane="edge1_0" slope="0.00"/>
        <vehicle id="vehicle_1" x="185.79" y="-156.96" angle="101.35" type="CarType" speed="13.85" pos="454.92" lane="-edge2_0" slope="0.00"/>
        <vehicle id="vehicle_electric" x="96.75" y="-139.09" angle="101.35" type="electricCar" speed="12.89" pos="364.10" lane="-edge2_0" slope="0.00"/>
        <vehicle id="vehicle_zeroEmissions" x="74.71" y="-134.66" angle="101.35" type="electricCarZeroEmissions" speed="13.46" pos="341.62" lane="-edge2_0" slope="0.00"/>
    </timestep>
    <timestep time="36.00">
        <vehicle id="vehicle_0" x="179.59" y="-176.46" angle="90.00" type="CarType" speed="14.80" pos="474.86" lane="edge1_0" slope="0.00"/>
        <vehicle id="vehicle_1" x="200.03" y="-159.82" angle="101.35" type="CarType" speed="14.53" pos="469.44" lane="-edge2_0" slope="0.00"/>
        <vehicle id="vehicle_electric" x="109.44" y="-141.63" angle="101.35" type="electricCar" speed="12.94" pos="377.05" lane="-edge2_0" slope="0.00"/>
        <vehicle id="vehicle_zeroEmissions" x="87.75" y="-137.28" angle="101.35" type="electricCarZeroEmissions" speed="13.29" pos="354.92" lane="-edge2_0" slope="0.00"/>
    </timestep>
    <timestep time="37.00">
        <vehicle id="vehicle_0" x="194.28" y="-176.46" angle="90.00" type="CarType" speed="14.69" pos="489.55" lane="edge1_0" slope="0.00"/>
        <vehicle id="vehicle_1" x="213.57" y="-162.53" angle="101.35" type="CarType" speed="13.81" pos="483.25" lane="-edge2_0" slope="0.00"/>
        <vehicle id="vehicle_electric" x="121.57" y="-144.07" angle="101.35" type="electricCar" speed="12.37" pos="389.41" lane="-edge2_0" slope="0.00"/>
        <vehicle id="vehicle_zeroEmissions" x="100.95" y="-139.93" angle="101.35" type="electricCarZeroEmissions" speed="13.47" pos="368.39" lane="-edge2_0" slope="0.00"/>
    </timestep>
    <timestep time="38.00">
        <vehicle id="vehicle_0" x="208.39" y="-176.46" angle="90.00" type="CarType" speed="14.11" pos="503.66" lane="edge1_0" slope="0.00"/>
        <vehicle id="vehicle_1" x="227.97" y="-165.42" angle="101.35" type="CarType" speed="14.69" pos="497.94" lane="-edge2_0" slope="0.00"/>
        <vehicle id="vehicle_electric" x="134.13" y="-146.59" angle="101.35" type="electricCar" speed="12.81" pos="402.22" lane="-edge2_0" slope="0.00"/>
        <vehicle id="vehicle_zeroEmissions" x="112.47" y="-142.24" angle="101.35" type="electricCarZeroEmissions" speed="11.75" pos="380.13" lane="-edge2_0" slope="0.00"/>
    </timestep>
    <timestep time="39.00">
        <vehicle id="vehicle_0" x="222.62" y="-176.46" angle="90.00" type="CarType" speed="14.23" pos="517.89" lane="edge1_0" slope="0.00"/>
        <vehicle id="vehicle_1" x="241.44" y="-168.13" angle="101.35" type="CarType" speed="13.74" pos="511.68" lane="-edge2_0" slope="0.00"/>
        <vehicle id="vehicle_electric" x="146.65" y="-149.10" angle="101.35" type="electricCar" speed="12.77" pos="415.00" lane="-edge2_0" slope="0.00"/>
        <vehicle id="vehicle_zeroEmissions" x="125.21" y="-144.80" angle="101.35" type="electricCarZeroEmissions" speed="12.99" pos="393.13" lane="-edge2_0" slope="0.00"/>
    </timestep>
    <timestep time="40.00">
        <vehicle id="vehicle_0" x="237.29" y="-176.46" angle="90.00" type="CarType" speed="14.67" pos="532.56" lane="edge1_0" slope="0.00"/>
        <vehicle id="vehicle_1" x="250.53" y="-169.95" angle="101.35" type="CarType" speed="9.27" pos="520.95" lane="-edge2_0" slope="0.00"/>
        <vehicle id="vehicle_electric" x="159.08" y="-151.60" angle="101.35" type="electricCar" speed="12.68" pos="427.67" lane="-edge2_0" slope="0.00"/>
        <vehicle id="vehicle_zeroEmissions" x="137.95" y="-147.36" angle="101.35" type="electricCarZeroEmissions" speed="13.00" pos="406.13" lane="-edge2_0" slope="0.00"/>
    </timestep>
    <timestep time="41.00">
        <vehicle id="vehicle_0" x="247.49" y="-176.46" angle="90.00" type="CarType" speed="10.20" pos="542.76" lane="edge1_0" slope="0.00"/>
        <vehicle id="vehicle_1" x="256.70" y="-171.37" angle="103.16" type="CarType" speed="6.33" pos="5.64" lane=":node2_1_0" slope="0.00"/>
        <vehicle id="vehicle_electric" x="171.69" y="-154.13" angle="101.35" type="electricCar" speed="12.86" pos="440.54" lane="-edge2_0" slope="0.00"/>
        <vehicle id="vehicle_zeroEmissions" x="150.06" y="-149.79" angle="101.35" type="electricCarZeroEmissions" speed="12.35" pos="418.48" lane="-edge2_0" slope="0.00"/>
    </timestep>
    <timestep time="42.00">
        <vehicle id="vehicle_0" x="253.00" y="-175.55" angle="79.35" type="CarType" speed="5.70" pos="2.29" lane=":node2_0_0" slope="0.00"/>
        <vehicle id="vehicle_1" x="255.14" y="-173.12" angle="249.00" type="CarType" speed="6.54" pos="12.18" lane=":node2_1_0" slope="0.00"/>
        <vehicle id="vehicle_electric" x="183.65" y="-156.53" angle="101.35" type="electricCar" speed="12.20" pos="452.74" lane="-edge2_0" slope="0.00"/>
        <vehicle id="vehicle_zeroEmissions" x="162.83" y="-152.35" angle="101.35" type="electricCarZeroEmissions" speed="13.02" pos="431.49" lane="-edge2_0" slope="0.00"/>
    </timestep>
    <timestep time="43.00">
        <vehicle id="vehicle_0" x="255.19" y="-171.55" angle="29.14" type="CarType" speed="4.95" pos="7.24" lane=":node2_0_0" slope="0.00"/>
        <vehicle id="vehicle_1" x="249.01" y="-173.26" angle="268.82" type="CarType" speed="6.14" pos="1.88" lane="-edge1_0" slope="0.00"/>
        <vehicle id="vehicle_electric" x="195.71" y="-158.95" angle="101.35" type="electricCar" speed="12.30" pos="465.04" lane="-edge2_0" slope="0.00"/>
        <vehicle id="vehicle_zeroEmissions" x="174.39" y="-154.67" angle="101.35" type="electricCarZeroEmissions" speed="11.79" pos="443.29" lane="-edge2_0" slope="0.00"/>
    </timestep>
    <timestep time="44.00">
        <vehicle id="vehicle_0" x="252.61" y="-167.48" angle="326.82" type="CarType" speed="5.18" pos="12.42" lane=":node2_0_0" slope="0.00"/>
        <vehicle id="vehicle_1" x="241.12" y="-173.26" angle="270.00" type="CarType" speed="7.89" pos="9.77" lane="-edge1_0" slope="0.00"/>
        <vehicle id="vehicle_electric" x="207.39" y="-161.29" angle="101.35" type="electricCar" speed="11.91" pos="476.94" lane="-edge2_0" slope="0.00"/>
        <vehicle id="vehicle_zeroEmissions" x="185.97" y="-156.99" angle="101.35" type="electricCarZeroEmissions" speed="11.81" pos="455.10" lane="-edge2_0" slope="0.00"/>
    </timestep>
    <timestep time="45.00">
        <vehicle id="vehicle_0" x="246.83" y="-165.94" angle="281.35" type="CarType" speed="6.05" pos="5.11" lane="edge2_0" slope="0.00"/>