<?xml version="1.0" encoding="UTF-8"?>

<!-- generated on 01/13/21 10:54:07 by Eclipse SUMO GUI Version 1.7.0
<configuration xmlns:xsi="http://www.w3.org/2001/XMLSchema-instance" xsi:noNamespaceSchemaLocation="http://sumo.dlr.de/xsd/sumoConfiguration.xsd">

    <input>
        <net-file value="base_case.net.xml"/>
        <route-files value="base_case.rou.xml"/>
        <additional-files value="base_case.add.xml"/>
    </input>

    <output>
        <emission-output value="emissionOutput.xml"/>
        <tripinfo-output value="tripinfo.xml"/>
    </output>

    <traci_server>
        <remote-port value="51979"/>
    </traci_server>

</configuration>
-->

<emission-export xmlns:xsi="http://www.w3.org/2001/XMLSchema-instance" xsi:noNamespaceSchemaLocation="http://sumo.dlr.de/xsd/emission_file.xsd">
    <timestep time="0.00"/>
    <timestep time="1.00"/>
    <timestep time="2.00"/>
    <timestep time="3.00"/>
    <timestep time="4.00"/>
    <timestep time="5.00"/>
    <timestep time="6.00"/>
    <timestep time="7.00"/>
    <timestep time="8.00"/>
    <timestep time="9.00"/>
    <timestep time="10.00">
        <vehicle id="veh1" eclass="Zero/default" CO2="0.00" CO="0.00" HC="0.00" NOx="0.00" PMx="0.00" fuel="0.00" electricity="0.00" noise="0.00" route="!veh1!var#1" type="eVehicle" waiting="0.00" lane="-gneE118_0" pos="5.10" speed="0.00" angle="180.00" x="-1.60" y="594.90"/>
    </timestep>
    <timestep time="11.00">
        <vehicle id="veh1" eclass="Zero/default" CO2="0.00" CO="0.00" HC="0.00" NOx="0.00" PMx="0.00" fuel="0.00" electricity="0.00" noise="0.00" route="!veh1!var#1" type="eVehicle" waiting="0.00" lane="-gneE118_0" pos="6.77" speed="1.67" angle="180.00" x="-1.60" y="593.23"/>
    </timestep>
    <timestep time="12.00">
        <vehicle id="veh1" eclass="Zero/default" CO2="0.00" CO="0.00" HC="0.00" NOx="0.00" PMx="0.00" fuel="0.00" electricity="0.00" noise="0.00" route="!veh1!var#1" type="eVehicle" waiting="0.00" lane="-gneE118_0" pos="10.32" speed="3.56" angle="180.00" x="-1.60" y="589.68"/>
    </timestep>
    <timestep time="13.00">
        <vehicle id="veh1" eclass="Zero/default" CO2="0.00" CO="0.00" HC="0.00" NOx="0.00" PMx="0.00" fuel="0.00" electricity="0.00" noise="0.00" route="!veh1!var#1" type="eVehicle" waiting="0.00" lane="-gneE118_0" pos="15.73" speed="5.41" angle="180.00" x="-1.60" y="584.27"/>
    </timestep>
    <timestep time="14.00">
        <vehicle id="veh1" eclass="Zero/default" CO2="0.00" CO="0.00" HC="0.00" NOx="0.00" PMx="0.00" fuel="0.00" electricity="0.00" noise="0.00" route="!veh1!var#1" type="eVehicle" waiting="0.00" lane="-gneE118_0" pos="22.61" speed="6.88" angle="180.00" x="-1.60" y="577.39"/>
    </timestep>
    <timestep time="15.00">
        <vehicle id="veh1" eclass="Zero/default" CO2="0.00" CO="0.00" HC="0.00" NOx="0.00" PMx="0.00" fuel="0.00" electricity="0.00" noise="0.00" route="!veh1!var#1" type="eVehicle" waiting="0.00" lane="-gneE118_0" pos="31.97" speed="9.36" angle="180.00" x="-1.60" y="568.03"/>
    </timestep>
    <timestep time="16.00">
        <vehicle id="veh1" eclass="Zero/default" CO2="0.00" CO="0.00" HC="0.00" NOx="0.00" PMx="0.00" fuel="0.00" electricity="0.00" noise="0.00" route="!veh1!var#1" type="eVehicle" waiting="0.00" lane="-gneE118_0" pos="43.24" speed="11.26" angle="180.00" x="-1.60" y="556.76"/>
    </timestep>
    <timestep time="17.00">
        <vehicle id="veh1" eclass="Zero/default" CO2="0.00" CO="0.00" HC="0.00" NOx="0.00" PMx="0.00" fuel="0.00" electricity="0.00" noise="0.00" route="!veh1!var#1" type="eVehicle" waiting="0.00" lane="-gneE118_0" pos="57.09" speed="13.86" angle="180.00" x="-1.60" y="542.91"/>
    </timestep>
    <timestep time="18.00">
        <vehicle id="veh1" eclass="Zero/default" CO2="0.00" CO="0.00" HC="0.00" NOx="0.00" PMx="0.00" fuel="0.00" electricity="0.00" noise="0.00" route="!veh1!var#1" type="eVehicle" waiting="0.00" lane="-gneE118_0" pos="71.73" speed="14.63" angle="180.00" x="-1.60" y="528.27"/>
    </timestep>
    <timestep time="19.00">
        <vehicle id="veh1" eclass="Zero/default" CO2="0.00" CO="0.00" HC="0.00" NOx="0.00" PMx="0.00" fuel="0.00" electricity="0.00" noise="0.00" route="!veh1!var#1" type="eVehicle" waiting="0.00" lane="-gneE118_0" pos="85.48" speed="13.75" angle="180.00" x="-1.60" y="514.52"/>
    </timestep>
    <timestep time="20.00">
        <vehicle id="veh1" eclass="Zero/default" CO2="0.00" CO="0.00" HC="0.00" NOx="0.00" PMx="0.00" fuel="0.00" electricity="0.00" noise="0.00" route="!veh1!var#1" type="eVehicle" waiting="0.00" lane=":gneJ65_1_0" pos="6.97" speed="14.29" angle="180.00" x="-1.60" y="500.23"/>
    </timestep>
    <timestep time="21.00">
        <vehicle id="veh1" eclass="Zero/default" CO2="0.00" CO="0.00" HC="0.00" NOx="0.00" PMx="0.00" fuel="0.00" electricity="0.00" noise="0.00" route="!veh1!var#1" type="eVehicle" waiting="0.00" lane="gneE107_0" pos="6.20" speed="13.64" angle="180.00" x="-1.60" y="486.60"/>
    </timestep>
    <timestep time="22.00">
        <vehicle id="veh1" eclass="Zero/default" CO2="0.00" CO="0.00" HC="0.00" NOx="0.00" PMx="0.00" fuel="0.00" electricity="0.00" noise="0.00" route="!veh1!var#1" type="eVehicle" waiting="0.00" lane="gneE107_0" pos="19.87" speed="13.67" angle="180.00" x="-1.60" y="472.93"/>
    </timestep>
    <timestep time="23.00">
        <vehicle id="veh1" eclass="Zero/default" CO2="0.00" CO="0.00" HC="0.00" NOx="0.00" PMx="0.00" fuel="0.00" electricity="0.00" noise="0.00" route="!veh1!var#1" type="eVehicle" waiting="0.00" lane="gneE107_0" pos="33.40" speed="13.53" angle="180.00" x="-1.60" y="459.40"/>
    </timestep>
    <timestep time="24.00">
        <vehicle id="veh1" eclass="Zero/default" CO2="0.00" CO="0.00" HC="0.00" NOx="0.00" PMx="0.00" fuel="0.00" electricity="0.00" noise="0.00" route="!veh1!var#1" type="eVehicle" waiting="0.00" lane="gneE107_0" pos="47.56" speed="14.17" angle="180.00" x="-1.60" y="445.24"/>
    </timestep>
    <timestep time="25.00">
        <vehicle id="veh1" eclass="Zero/default" CO2="0.00" CO="0.00" HC="0.00" NOx="0.00" PMx="0.00" fuel="0.00" electricity="0.00" noise="0.00" route="!veh1!var#1" type="eVehicle" waiting="0.00" lane="gneE107_0" pos="61.25" speed="13.69" angle="180.00" x="-1.60" y="431.55"/>
    </timestep>
    <timestep time="26.00">
        <vehicle id="veh1" eclass="Zero/default" CO2="0.00" CO="0.00" HC="0.00" NOx="0.00" PMx="0.00" fuel="0.00" electricity="0.00" noise="0.00" route="!veh1!var#1" type="eVehicle" waiting="0.00" lane="gneE107_0" pos="75.10" speed="13.85" angle="180.00" x="-1.60" y="417.70"/>
    </timestep>
    <timestep time="27.00">
        <vehicle id="veh1" eclass="Zero/default" CO2="0.00" CO="0.00" HC="0.00" NOx="0.00" PMx="0.00" fuel="0.00" electricity="0.00" noise="0.00" route="!veh1!var#1" type="eVehicle" waiting="0.00" lane=":gneJ56_1_0" pos="3.36" speed="13.86" angle="180.00" x="-1.60" y="403.84"/>
    </timestep>
    <timestep time="28.00">
        <vehicle id="veh1" eclass="Zero/default" CO2="0.00" CO="0.00" HC="0.00" NOx="0.00" PMx="0.00" fuel="0.00" electricity="0.00" noise="0.00" route="!veh1!var#1" type="eVehicle" waiting="0.00" lane="gneE91_0" pos="3.42" speed="14.46" angle="180.00" x="-1.60" y="389.38"/>
    </timestep>
    <timestep time="29.00">
        <vehicle id="veh1" eclass="Zero/default" CO2="0.00" CO="0.00" HC="0.00" NOx="0.00" PMx="0.00" fuel="0.00" electricity="0.00" noise="0.00" route="!veh1!var#1" type="eVehicle" waiting="0.00" lane="gneE91_0" pos="18.04" speed="14.62" angle="180.00" x="-1.60" y="374.76"/>
    </timestep>
    <timestep time="30.00">
        <vehicle id="veh1" eclass="Zero/default" CO2="0.00" CO="0.00" HC="0.00" NOx="0.00" PMx="0.00" fuel="0.00" electricity="0.00" noise="0.00" route="!veh1!var#1" type="eVehicle" waiting="0.00" lane="gneE91_0" pos="32.03" speed="13.99" angle="180.00" x="-1.60" y="360.77"/>
    </timestep>
    <timestep time="31.00">
        <vehicle id="veh1" eclass="Zero/default" CO2="0.00" CO="0.00" HC="0.00" NOx="0.00" PMx="0.00" fuel="0.00" electricity="0.00" noise="0.00" route="!veh1!var#1" type="eVehicle" waiting="0.00" lane="gneE91_0" pos="46.70" speed="14.67" angle="180.00" x="-1.60" y="346.10"/>
    </timestep>
    <timestep time="32.00">
        <vehicle id="veh1" eclass="Zero/default" CO2="0.00" CO="0.00" HC="0.00" NOx="0.00" PMx="0.00" fuel="0.00" electricity="0.00" noise="0.00" route="!veh1!var#1" type="eVehicle" waiting="0.00" lane="gneE91_0" pos="61.03" speed="14.34" angle="180.00" x="-1.60" y="331.77"/>
    </timestep>
    <timestep time="33.00">
        <vehicle id="veh1" eclass="Zero/default" CO2="0.00" CO="0.00" HC="0.00" NOx="0.00" PMx="0.00" fuel="0.00" electricity="0.00" noise="0.00" route="!veh1!var#1" type="eVehicle" waiting="0.00" lane="gneE91_0" pos="75.59" speed="14.56" angle="180.00" x="-1.60" y="317.21"/>
    </timestep>
    <timestep time="34.00">
        <vehicle id="veh1" eclass="Zero/default" CO2="0.00" CO="0.00" HC="0.00" NOx="0.00" PMx="0.00" fuel="0.00" electricity="0.00" noise="0.00" route="!veh1!var#1" type="eVehicle" waiting="0.00" lane=":gneJ7_1_0" pos="4.36" speed="14.37" angle="180.00" x="-1.60" y="302.84"/>
    </timestep>
    <timestep time="35.00">
        <vehicle id="veh1" eclass="Zero/default" CO2="0.00" CO="0.00" HC="0.00" NOx="0.00" PMx="0.00" fuel="0.00" electricity="0.00" noise="0.00" route="!veh1!var#1" type="eVehicle" waiting="0.00" lane="-gneE5_0" pos="3.97" speed="14.01" angle="180.00" x="-1.60" y="288.83"/>
    </timestep>
    <timestep time="36.00">
        <vehicle id="veh1" eclass="Zero/default" CO2="0.00" CO="0.00" HC="0.00" NOx="0.00" PMx="0.00" fuel="0.00" electricity="0.00" noise="0.00" route="!veh1!var#1" type="eVehicle" waiting="0.00" lane="-gneE5_0" pos="18.40" speed="14.42" angle="180.00" x="-1.60" y="274.40"/>
    </timestep>
    <timestep time="37.00">
        <vehicle id="veh1" eclass="Zero/default" CO2="0.00" CO="0.00" HC="0.00" NOx="0.00" PMx="0.00" fuel="0.00" electricity="0.00" noise="0.00" route="!veh1!var#1" type="eVehicle" waiting="0.00" lane="-gneE5_0" pos="32.78" speed="14.38" angle="180.00" x="-1.60" y="260.02"/>
    </timestep>
    <timestep time="38.00">
        <vehicle id="veh1" eclass="Zero/default" CO2="0.00" CO="0.00" HC="0.00" NOx="0.00" PMx="0.00" fuel="0.00" electricity="0.00" noise="0.00" route="!veh1!var#1" type="eVehicle" waiting="0.00" lane="-gneE5_0" pos="47.03" speed="14.26" angle="180.00" x="-1.60" y="245.77"/>
    </timestep>
    <timestep time="39.00">
        <vehicle id="veh1" eclass="Zero/default" CO2="0.00" CO="0.00" HC="0.00" NOx="0.00" PMx="0.00" fuel="0.00" electricity="0.00" noise="0.00" route="!veh1!var#1" type="eVehicle" waiting="0.00" lane="-gneE5_0" pos="61.08" speed="14.05" angle="180.00" x="-1.60" y="231.72"/>
    </timestep>
    <timestep time="40.00">
        <vehicle id="veh1" eclass="Zero/default" CO2="0.00" CO="0.00" HC="0.00" NOx="0.00" PMx="0.00" fuel="0.00" electricity="0.00" noise="0.00" route="!veh1!var#1" type="eVehicle" waiting="0.00" lane="-gneE5_0" pos="75.51" speed="14.43" angle="180.00" x="-1.60" y="217.29"/>
    </timestep>
    <timestep time="41.00">
        <vehicle id="veh1" eclass="Zero/default" CO2="0.00" CO="0.00" HC="0.00" NOx="0.00" PMx="0.00" fuel="0.00" electricity="0.00" noise="0.00" route="!veh1!var#1" type="eVehicle" waiting="0.00" lane=":gneJ4_1_0" pos="4.48" speed="14.57" angle="180.00" x="-1.60" y="202.72"/>
    </timestep>
    <timestep time="42.00">
        <vehicle id="veh1" eclass="Zero/default" CO2="0.00" CO="0.00" HC="0.00" NOx="0.00" PMx="0.00" fuel="0.00" electricity="0.00" noise="0.00" route="!veh1!var#1" type="eVehicle" waiting="0.00" lane="-gneE2_0" pos="4.53" speed="14.44" angle="180.00" x="-1.60" y="188.27"/>
    </timestep>
    <timestep time="43.00">
        <vehicle id="veh1" eclass="Zero/default" CO2="0.00" CO="0.00" HC="0.00" NOx="0.00" PMx="0.00" fuel="0.00" electricity="0.00" noise="0.00" route="!veh1!var#1" type="eVehicle" waiting="0.00" lane="-gneE2_0" pos="18.09" speed="13.56" angle="180.00" x="-1.60" y="174.71"/>
    </timestep>
    <timestep time="44.00">
        <vehicle id="veh1" eclass="Zero/default" CO2="0.00" CO="0.00" HC="0.00" NOx="0.00" PMx="0.00" fuel="0.00" electricity="0.00" noise="0.00" route="!veh1!var#1" type="eVehicle" waiting="0.00" lane="-gneE2_0" pos="32.67" speed="14.57" angle="180.00" x="-1.60" y="160.13"/>
    </timestep>
    <timestep time="45.00">
        <vehicle id="veh1" eclass="Zero/default" CO2="0.00" CO="0.00" HC="0.00" NOx="0.00" PMx="0.00" fuel="0.00" electricity="0.00" noise="0.00" route="!veh1!var#1" type="eVehicle" waiting="0.00" lane="-gneE2_0" pos="46.65" speed="13.98" angle="180.00" x="-1.60" y="146.15"/>
    </timestep>
    <timestep time="46.00">
        <vehicle id="veh1" eclass="Zero/default" CO2="0.00" CO="0.00" HC="0.00" NOx="0.00" PMx="0.00" fuel="0.00" electricity="0.00" noise="0.00" route="!veh1!var#1" type="eVehicle" waiting="0.00" lane="-gneE2_0" pos="61.08" speed="14.43" angle="180.00" x="-1.60" y="131.72"/>
    </timestep>
    <timestep time="47.00">
        <vehicle id="veh1" eclass="Zero/default" CO2="0.00" CO="0.00" HC="0.00" NOx="0.00" PMx="0.00" fuel="0.00" electricity="0.00" noise="0.00" route="!veh1!var#1" type="eVehicle" waiting="0.00" lane="-gneE2_0" pos="75.30" speed="14.22" angle="180.00" x="-1.60" y="117.50"/>
    </timestep>
    <timestep time="48.00">
        <vehicle id="veh1" eclass="Zero/default" CO2="0.00" CO="0.00" HC="0.00" NOx="0.00" PMx="0.00" fuel="0.00" electricity="0.00" noise="0.00" route="!veh1!var#1" type="eVehicle" waiting="0.00" lane=":gneJ3_1_0" pos="3.26" speed="13.56" angle="180.00" x="-1.60" y="103.94"/>
    </timestep>
    <timestep time="49.00">
        <vehicle id="veh1" eclass="Zero/default" CO2="0.00" CO="0.00" HC="0.00" NOx="0.00" PMx="0.00" fuel="0.00" electricity="0.00" noise="0.00" route="!veh1!var#1" type="eVehicle" waiting="0.00" lane="-gneE1_0" pos="2.77" speed="13.91" angle="180.00" x="-1.60" y="90.03"/>
    </timestep>
    <timestep time="50.00">
        <vehicle id="veh1" eclass="Zero/default" CO2="0.00" CO="0.00" HC="0.00" NOx="0.00" PMx="0.00" fuel="0.00" electricity="0.00" noise="0.00" route="!veh1!var#1" type="eVehicle" waiting="0.00" lane="-gneE1_0" pos="17.07" speed="14.30" angle="180.00" x="-1.60" y="75.73"/>
    </timestep>
    <timestep time="51.00">
        <vehicle id="veh1" eclass="Zero/default" CO2="0.00" CO="0.00" HC="0.00" NOx="0.00" PMx="0.00" fuel="0.00" electricity="0.00" noise="0.00" route="!veh1!var#1" type="eVehicle" waiting="0.00" lane="-gneE1_0" pos="31.64" speed="14.56" angle="180.00" x="-1.60" y="61.16"/>
    </timestep>
    <timestep time="52.00">
        <vehicle id="veh1" eclass="Zero/default" CO2="0.00" CO="0.00" HC="0.00" NOx="0.00" PMx="0.00" fuel="0.00" electricity="0.00" noise="0.00" route="!veh1!var#1" type="eVehicle" waiting="0.00" lane="-gneE1_0" pos="45.94" speed="14.30" angle="180.00" x="-1.60" y="46.86"/>
    </timestep>
    <timestep time="53.00">
        <vehicle id="veh1" eclass="Zero/default" CO2="0.00" CO="0.00" HC="0.00" NOx="0.00" PMx="0.00" fuel="0.00" electricity="0.00" noise="0.00" route="!veh1!var#1" type="eVehicle" waiting="0.00" lane="-gneE1_0" pos="59.45" speed="13.52" angle="180.00" x="-1.60" y="33.35"/>
    </timestep>
    <timestep time="54.00">
        <vehicle id="veh1" eclass="Zero/default" CO2="0.00" CO="0.00" HC="0.00" NOx="0.00" PMx="0.00" fuel="0.00" electricity="0.00" noise="0.00" route="!veh1!var#1" type="eVehicle" waiting="0.00" lane="-gneE1_0" pos="72.97" speed="13.52" angle="180.00" x="-1.60" y="19.83"/>
    </timestep>
    <timestep time="55.00">
        <vehicle id="veh1" eclass="Zero/default" CO2="0.00" CO="0.00" HC="0.00" NOx="0.00" PMx="0.00" fuel="0.00" electricity="0.00" noise="0.00" route="!veh1!var#1" type="eVehicle" waiting="0.00" lane=":gneJ1_1_0" pos="1.54" speed="14.17" angle="180.00" x="-1.60" y="5.66"/>
    </timestep>
    <timestep time="56.00">
        <vehicle id="veh1" eclass="Zero/default" CO2="0.00" CO="0.00" HC="0.00" NOx="0.00" PMx="0.00" fuel="0.00" electricity="0.00" noise="0.00" route="!veh1!var#1" type="eVehicle" waiting="0.00" lane="gneE62_0" pos="1.86" speed="14.72" angle="180.00" x="-1.60" y="-9.06"/>
    </timestep>
    <timestep time="57.00">
        <vehicle id="veh1" eclass="Zero/default" CO2="0.00" CO="0.00" HC="0.00" NOx="0.00" PMx="0.00" fuel="0.00" electricity="0.00" noise="0.00" route="!veh1!var#1" type="eVehicle" waiting="0.00" lane="gneE62_0" pos="15.90" speed="14.04" angle="180.00" x="-1.60" y="-23.10"/>
    </timestep>
    <timestep time="58.00">
        <vehicle id="veh1" eclass="Zero/default" CO2="0.00" CO="0.00" HC="0.00" NOx="0.00" PMx="0.00" fuel="0.00" electricity="0.00" noise="0.00" route="!veh1!var#1" type="eVehicle" waiting="0.00" lane="gneE62_0" pos="29.75" speed="13.85" angle="180.00" x="-1.60" y="-36.95"/>
    </timestep>
    <timestep time="59.00">
        <vehicle id="veh1" eclass="Zero/default" CO2="0.00" CO="0.00" HC="0.00" NOx="0.00" PMx="0.00" fuel="0.00" electricity="0.00" noise="0.00" route="!veh1!var#1" type="eVehicle" waiting="0.00" lane="gneE62_0" pos="43.87" speed="14.13" angle="180.00" x="-1.60" y="-51.07"/>
    </timestep>
    <timestep time="60.00">
        <vehicle id="veh1" eclass="Zero/default" CO2="0.00" CO="0.00" HC="0.00" NOx="0.00" PMx="0.00" fuel="0.00" electricity="0.00" noise="0.00" route="!veh1!var#1" type="eVehicle" waiting="0.00" lane="gneE62_0" pos="58.44" speed="14.56" angle="180.00" x="-1.60" y="-65.64"/>
    </timestep>
    <timestep time="61.00">
        <vehicle id="veh1" eclass="Zero/default" CO2="0.00" CO="0.00" HC="0.00" NOx="0.00" PMx="0.00" fuel="0.00" electricity="0.00" noise="0.00" route="!veh1!var#1" type="eVehicle" waiting="0.00" lane="gneE62_0" pos="72.76" speed="14.32" angle="180.00" x="-1.60" y="-79.96"/>
    </timestep>
    <timestep time="62.00">
        <vehicle id="veh1" eclass="Zero/default" CO2="0.00" CO="0.00" HC="0.00" NOx="0.00" PMx="0.00" fuel="0.00" electricity="0.00" noise="0.00" route="!veh1!var#1" type="eVehicle" waiting="0.00" lane=":gneJ39_1_0" pos="1.16" speed="14.01" angle="180.00" x="-1.60" y="-93.96"/>
    </timestep>
    <timestep time="63.00">
        <vehicle id="veh1" eclass="Zero/default" CO2="0.00" CO="0.00" HC="0.00" NOx="0.00" PMx="0.00" fuel="0.00" electricity="0.00" noise="0.00" route="!veh1!var#1" type="eVehicle" waiting="0.00" lane="gneE63_0" pos="0.92" speed="14.15" angle="180.00" x="-1.60" y="-108.12"/>
    </timestep>
    <timestep time="64.00">
        <vehicle id="veh1" eclass="Zero/default" CO2="0.00" CO="0.00" HC="0.00" NOx="0.00" PMx="0.00" fuel="0.00" electricity="0.00" noise="0.00" route="!veh1!var#1" type="eVehicle" waiting="0.00" lane="gneE63_0" pos="15.02" speed="14.10" angle="180.00" x="-1.60" y="-122.22"/>
    </timestep>
    <timestep time="65.00">
        <vehicle id="veh1" eclass="Zero/default" CO2="0.00" CO="0.00" HC="0.00" NOx="0.00" PMx="0.00" fuel="0.00" electricity="0.00" noise="0.00" route="!veh1!var#1" type="eVehicle" waiting="0.00" lane="gneE63_0" pos="29.35" speed="14.33" angle="180.00" x="-1.60" y="-136.55"/>
    </timestep>
    <timestep time="66.00">
        <vehicle id="veh1" eclass="Zero/default" CO2="0.00" CO="0.00" HC="0.00" NOx="0.00" PMx="0.00" fuel="0.00" electricity="0.00" noise="0.00" route="!veh1!var#1" type="eVehicle" waiting="0.00" lane="gneE63_0" pos="42.81" speed="13.45" angle="180.00" x="-1.60" y="-150.01"/>
    </timestep>
    <timestep time="67.00">
        <vehicle id="veh1" eclass="Zero/default" CO2="0.00" CO="0.00" HC="0.00" NOx="0.00" PMx="0.00" fuel="0.00" electricity="0.00" noise="0.00" route="!veh1!var#1" type="eVehicle" waiting="0.00" lane="gneE63_0" pos="56.74" speed="13.93" angle="180.00" x="-1.60" y="-163.94"/>
    </timestep>
    <timestep time="68.00">
        <vehicle id="veh1" eclass="Zero/default" CO2="0.00" CO="0.00" HC="0.00" NOx="0.00" PMx="0.00" fuel="0.00" electricity="0.00" noise="0.00" route="!veh1!var#1" type="eVehicle" waiting="0.00" lane="gneE63_0" pos="70.30" speed="13.56" angle="180.00" x="-1.60" y="-177.50"/>
    </timestep>
    <timestep time="69.00">
        <vehicle id="veh1" eclass="Zero/default" CO2="0.00" CO="0.00" HC="0.00" NOx="0.00" PMx="0.00" fuel="0.00" electricity="0.00" noise="0.00" route="!veh1!var#1" type="eVehicle" waiting="0.00" lane="gneE63_0" pos="81.41" speed="11.11" angle="180.00" x="-1.60" y="-188.61"/>
    </timestep>
    <timestep time="70.00">
        <vehicle id="veh1" eclass="Zero/default" CO2="0.00" CO="0.00" HC="0.00" NOx="0.00" PMx="0.00" fuel="0.00" electricity="0.00" noise="0.00" route="!veh1!var#1" type="eVehicle" waiting="0.00" lane=":gneJ40_2_0" pos="2.94" speed="7.13" angle="175.23" x="-1.18" y="-195.71"/>
    </timestep>
    <timestep time="71.00">
        <vehicle id="veh1" eclass="Zero/default" CO2="0.00" CO="0.00" HC="0.00" NOx="0.00" PMx="0.00" fuel="0.00" electricity="0.00" noise="0.00" route="!veh1!var#1" type="eVehicle" waiting="0.00" lane=":gneJ40_12_0" pos="5.08" speed="8.07" angle="123.77" x="4.05" y="-201.15"/>
    </timestep>
    <timestep time="72.00">
        <vehicle id="veh1" eclass="Zero/default" CO2="0.00" CO="0.00" HC="0.00" NOx="0.00" PMx="0.00" fuel="0.00" electricity="0.00" noise="0.00" route="!veh1!var#1" type="eVehicle" waiting="0.00" lane="gneE64_0" pos="5.17" speed="8.35" angle="90.00" x="12.37" y="-201.60"/>
    </timestep>
    <timestep time="73.00">
        <vehicle id="veh1" eclass="Zero/default" CO2="0.00" CO="0.00" HC="0.00" NOx="0.00" PMx="0.00" fuel="0.00" electricity="0.00" noise="0.00" route="!veh1!var#1" type="eVehicle" waiting="0.00" lane="gneE64_0" pos="14.89" speed="9.72" angle="90.00" x="22.09" y="-201.60"/>
    </timestep>
    <timestep time="74.00">
        <vehicle id="veh1" eclass="Zero/default" CO2="0.00" CO="0.00" HC="0.00" NOx="0.00" PMx="0.00" fuel="0.00" electricity="0.00" noise="0.00" route="!veh1!var#1" type="eVehicle" waiting="0.00" lane="gneE64_0" pos="25.94" speed="11.05" angle="90.00" x="33.14" y="-201.60"/>
    </timestep>
    <timestep time="75.00">
        <vehicle id="veh1" eclass="Zero/default" CO2="0.00" CO="0.00" HC="0.00" NOx="0.00" PMx="0.00" fuel="0.00" electricity="0.00" noise="0.00" route="!veh1!var#1" type="eVehicle" waiting="0.00" lane="gneE64_0" pos="38.43" speed="12.49" angle="90.00" x="45.63" y="-201.60"/>
    </timestep>
    <timestep time="76.00">
        <vehicle id="veh1" eclass="Zero/default" CO2="0.00" CO="0.00" HC="0.00" NOx="0.00" PMx="0.00" fuel="0.00" electricity="0.00" noise="0.00" route="!veh1!var#1" type="eVehicle" waiting="0.00" lane="gneE64_0" pos="53.10" speed="14.67" angle="90.00" x="60.30" y="-201.60"/>
    </timestep>
    <timestep time="77.00">
        <vehicle id="veh1" eclass="Zero/default" CO2="0.00" CO="0.00" HC="0.00" NOx="0.00" PMx="0.00" fuel="0.00" electricity="0.00" noise="0.00" route="!veh1!var#1" type="eVehicle" waiting="0.00" lane="gneE64_0" pos="67.65" speed="14.55" angle="90.00" x="74.85" y="-201.60"/>
    </timestep>
    <timestep time="78.00">
        <vehicle id="veh1" eclass="Zero/default" CO2="0.00" CO="0.00" HC="0.00" NOx="0.00" PMx="0.00" fuel="0.00" electricity="0.00" noise="0.00" route="!veh1!var#1" type="eVehicle" waiting="0.00" lane="gneE64_0" pos="81.46" speed="13.81" angle="90.00" x="88.66" y="-201.60"/>
    </timestep>
    <timestep time="79.00">
        <vehicle id="veh1" eclass="Zero/default" CO2="0.00" CO="0.00" HC="0.00" NOx="0.00" PMx="0.00" fuel="0.00" electricity="0.00" noise="0.00" route="!veh1!var#1" type="eVehicle" waiting="0.00" lane=":gneJ38_4_0" pos="9.48" speed="13.62" angle="90.00" x="102.28" y="-201.60"/>
    </timestep>
    <timestep time="80.00">
        <vehicle id="veh1" eclass="Zero/default" CO2="0.00" CO="0.00" HC="0.00" NOx="0.00" PMx="0.00" fuel="0.00" electricity="0.00" noise="0.00" route="!veh1!var#1" type="eVehicle" waiting="0.00" lane="gneE60_0" pos="8.64" speed="13.56" angle="90.00" x="115.84" y="-201.60"/>
    </timestep>
    <timestep time="81.00">
        <vehicle id="veh1" eclass="Zero/default" CO2="0.00" CO="0.00" HC="0.00" NOx="0.00" PMx="0.00" fuel="0.00" electricity="0.00" noise="0.00" route="!veh1!var#1" type="eVehicle" waiting="0.00" lane="gneE60_0" pos="22.65" speed="14.00" angle="90.00" x="129.85" y="-201.60"/>
    </timestep>
    <timestep time="82.00">
        <vehicle id="veh1" eclass="Zero/default" CO2="0.00" CO="0.00" HC="0.00" NOx="0.00" PMx="0.00" fuel="0.00" electricity="0.00" noise="0.00" route="!veh1!var#1" type="eVehicle" waiting="0.00" lane="gneE60_0" pos="36.71" speed="14.06" angle="90.00" x="143.91" y="-201.60"/>
    </timestep>
    <timestep time="83.00">
        <vehicle id="veh1" eclass="Zero/default" CO2="0.00" CO="0.00" HC="0.00" NOx="0.00" PMx="0.00" fuel="0.00" electricity="0.00" noise="0.00" route="!veh1!var#1" type="eVehicle" waiting="0.00" lane="gneE60_0" pos="51.26" speed="14.55" angle="90.00" x="158.46" y="-201.60"/>
    </timestep>
    <timestep time="84.00">
        <vehicle id="veh1" eclass="Zero/default" CO2="0.00" CO="0.00" HC="0.00" NOx="0.00" PMx="0.00" fuel="0.00" electricity="0.00" noise="0.00" route="!veh1!var#1" type="eVehicle" waiting="0.00" lane="gneE60_0" pos="65.17" speed="13.91" angle="90.00" x="172.37" y="-201.60"/>
    </timestep>
    <timestep time="85.00">
        <vehicle id="veh1" eclass="Zero/default" CO2="0.00" CO="0.00" HC="0.00" NOx="0.00" PMx="0.00" fuel="0.00" electricity="0.00" noise="0.00" route="!veh1!var#1" type="eVehicle" waiting="0.00" lane="gneE60_0" pos="79.11" speed="13.94" angle="90.00" x="186.31" y="-201.60"/>
    </timestep>
    <timestep time="86.00">
        <vehicle id="veh1" eclass="Zero/default" CO2="0.00" CO="0.00" HC="0.00" NOx="0.00" PMx="0.00" fuel="0.00" electricity="0.00" noise="0.00" route="!veh1!var#1" type="eVehicle" waiting="0.00" lane=":gneJ34_4_0" pos="7.53" speed="14.02" angle="90.00" x="200.33" y="-201.60"/>
    </timestep>
    <timestep time="87.00">
        <vehicle id="veh1" eclass="Zero/default" CO2="0.00" CO="0.00" HC="0.00" NOx="0.00" PMx="0.00" fuel="0.00" electricity="0.00" noise="0.00" route="!veh1!var#1" type="eVehicle" waiting="0.00" lane="gneE53_0" pos="7.49" speed="14.37" angle="90.00" x="214.69" y="-201.60"/>
    </timestep>
    <timestep time="88.00">
        <vehicle id="veh1" eclass="Zero/default" CO2="0.00" CO="0.00" HC="0.00" NOx="0.00" PMx="0.00" fuel="0.00" electricity="0.00" noise="0.00" route="!veh1!var#1" type="eVehicle" waiting="0.00" lane="gneE53_0" pos="21.24" speed="13.75" angle="90.00" x="228.44" y="-201.60"/>
    </timestep>
    <timestep time="89.00">
        <vehicle id="veh1" eclass="Zero/default" CO2="0.00" CO="0.00" HC="0.00" NOx="0.00" PMx="0.00" fuel="0.00" electricity="0.00" noise="0.00" route="!veh1!var#1" type="eVehicle" waiting="0.00" lane="gneE53_0" pos="35.01" speed="13.76" angle="90.00" x="242.21" y="-201.60"/>
    </timestep>
    <timestep time="90.00">
        <vehicle id="veh1" eclass="Zero/default" CO2="0.00" CO="0.00" HC="0.00" NOx="0.00" PMx="0.00" fuel="0.00" electricity="0.00" noise="0.00" route="!veh1!var#1" type="eVehicle" waiting="0.00" lane="gneE53_0" pos="48.86" speed="13.85" angle="90.00" x="256.06" y="-201.60"/>
    </timestep>
    <timestep time="91.00">
        <vehicle id="veh1" eclass="Zero/default" CO2="0.00" CO="0.00" HC="0.00" NOx="0.00" PMx="0.00" fuel="0.00" electricity="0.00" noise="0.00" route="!veh1!var#1" type="eVehicle" waiting="0.00" lane="gneE53_0" pos="62.75" speed="13.89" angle="90.00" x="269.95" y="-201.60"/>
    </timestep>
    <timestep time="92.00">
        <vehicle id="veh1" eclass="Zero/default" CO2="0.00" CO="0.00" HC="0.00" NOx="0.00" PMx="0.00" fuel="0.00" electricity="0.00" noise="0.00" route="!veh1!var#1" type="eVehicle" waiting="0.00" lane="gneE53_0" pos="74.21" speed="11.46" angle="90.00" x="281.41" y="-201.60"/>
    </timestep>
    <timestep time="93.00">
        <vehicle id="veh1" eclass="Zero/default" CO2="0.00" CO="0.00" HC="0.00" NOx="0.00" PMx="0.00" fuel="0.00" electricity="0.00" noise="0.00" route="!veh1!var#1" type="eVehicle" waiting="0.00" lane="gneE53_0" pos="81.50" speed="7.29" angle="90.00" x="288.70" y="-201.60"/>
    </timestep>
    <timestep time="94.00">
        <vehicle id="veh1" eclass="Zero/default" CO2="0.00" CO="0.00" HC="0.00" NOx="0.00" PMx="0.00" fuel="0.00" electricity="0.00" noise="0.00" route="!veh1!var#1" type="eVehicle" waiting="0.00" lane=":gneJ35_9_0" pos="1.95" speed="6.05" angle="93.16" x="294.73" y="-201.88"/>
    </timestep>
    <timestep time="95.00">
        <vehicle id="veh1" eclass="Zero/default" CO2="0.00" CO="0.00" HC="0.00" NOx="0.00" PMx="0.00" fuel="0.00" electricity="0.00" noise="0.00" route="!veh1!var#1" type="eVehicle" waiting="0.00" lane=":gneJ35_9_0" pos="8.24" speed="6.29" angle="149.67" x="298.29" y="-206.42"/>
    </timestep>
    <timestep time="96.00">
        <vehicle id="veh1" eclass="Zero/default" CO2="0.00" CO="0.00" HC="0.00" NOx="0.00" PMx="0.00" fuel="0.00" electricity="0.00" noise="0.00" route="!veh1!var#1" type="eVehicle" waiting="0.00" lane="gneE123_0" pos="5.36" speed="6.15" angle="180.00" x="298.40" y="-212.56"/>
    </timestep>
    <timestep time="97.00">
        <vehicle id="veh1" eclass="Zero/default" CO2="0.00" CO="0.00" HC="0.00" NOx="0.00" PMx="0.00" fuel="0.00" electricity="0.00" noise="0.00" route="!veh1!var#1" type="eVehicle" waiting="0.00" lane="gneE123_0" pos="13.87" speed="8.51" angle="180.00" x="298.40" y="-221.07"/>
    </timestep>
    <timestep time="98.00">
        <vehicle id="veh1" eclass="Zero/default" CO2="0.00" CO="0.00" HC="0.00" NOx="0.00" PMx="0.00" fuel="0.00" electricity="0.00" noise="0.00" route="!veh1!var#1" type="eVehicle" waiting="0.00" lane="gneE123_0" pos="23.74" speed="9.87" angle="180.00" x="298.40" y="-230.94"/>
    </timestep>
    <timestep time="99.00">