<?xml version="1.0" encoding="UTF-8"?>

<!-- generated on 01/13/21 13:16:15 by Eclipse SUMO GUI Version 1.7.0
<configuration xmlns:xsi="http://www.w3.org/2001/XMLSchema-instance" xsi:noNamespaceSchemaLocation="http://sumo.dlr.de/xsd/sumoConfiguration.xsd">

    <input>
        <net-file value="base_case.net.xml"/>
        <route-files value="base_case.rou.xml"/>
        <additional-files value="base_case.add.xml"/>
    </input>

    <output>
        <emission-output value="emissionOutput.xml"/>
        <tripinfo-output value="tripinfo.xml"/>
    </output>

    <traci_server>
        <remote-port value="53617"/>
    </traci_server>

</configuration>
-->

<meandata xmlns:xsi="http://www.w3.org/2001/XMLSchema-instance" xsi:noNamespaceSchemaLocation="http://sumo.dlr.de/xsd/meandata_file.xsd">
    <interval begin="0.00" end="75.00" id="edgeDetector">
        <edge id="-gneE1" sampledSeconds="6.43" CO_abs="0" CO2_abs="0" HC_abs="0" PMx_abs="0" NOx_abs="0" fuel_abs="0" electricity_abs="0"
            CO_normed="0" CO2_normed="0" HC_normed="0" PMx_normed="0" NOx_normed="0" fuel_normed="0" electricity_normed="0"
            traveltime="6.08" CO_perVeh="0" CO2_perVeh="0" HC_perVeh="0" PMx_perVeh="0" NOx_perVeh="0" fuel_perVeh="0" electricity_perVeh="0"/>
        <edge id="-gneE118" sampledSeconds="9.86" CO_abs="0" CO2_abs="0" HC_abs="0" PMx_abs="0" NOx_abs="0" fuel_abs="0" electricity_abs="0"
            CO_normed="0" CO2_normed="0" HC_normed="0" PMx_normed="0" NOx_normed="0" fuel_normed="0" electricity_normed="0"
            traveltime="9.87" CO_perVeh="0" CO2_perVeh="0" HC_perVeh="0" PMx_perVeh="0" NOx_perVeh="0" fuel_perVeh="0" electricity_perVeh="0"/>
        <edge id="-gneE2" sampledSeconds="6.44" CO_abs="0" CO2_abs="0" HC_abs="0" PMx_abs="0" NOx_abs="0" fuel_abs="0" electricity_abs="0"
            CO_normed="0" CO2_normed="0" HC_normed="0" PMx_normed="0" NOx_normed="0" fuel_normed="0" electricity_normed="0"
            traveltime="6.08" CO_perVeh="0" CO2_perVeh="0" HC_perVeh="0" PMx_perVeh="0" NOx_perVeh="0" fuel_perVeh="0" electricity_perVeh="0"/>
        <edge id="-gneE5" sampledSeconds="6.32" CO_abs="0" CO2_abs="0" HC_abs="0" PMx_abs="0" NOx_abs="0" fuel_abs="0" electricity_abs="0"
            CO_normed="0" CO2_normed="0" HC_normed="0" PMx_normed="0" NOx_normed="0" fuel_normed="0" electricity_normed="0"
            traveltime="5.97" CO_perVeh="0" CO2_perVeh="0" HC_perVeh="0" PMx_perVeh="0" NOx_perVeh="0" fuel_perVeh="0" electricity_perVeh="0"/>
        <edge id="gneE107" sampledSeconds="6.57" CO_abs="0" CO2_abs="0" HC_abs="0" PMx_abs="0" NOx_abs="0" fuel_abs="0" electricity_abs="0"
            CO_normed="0" CO2_normed="0" HC_normed="0" PMx_normed="0" NOx_normed="0" fuel_normed="0" electricity_normed="0"
            traveltime="6.21" CO_perVeh="0" CO2_perVeh="0" HC_perVeh="0" PMx_perVeh="0" NOx_perVeh="0" fuel_perVeh="0" electricity_perVeh="0"/>
        <edge id="gneE62" sampledSeconds="6.40" CO_abs="0" CO2_abs="0" HC_abs="0" PMx_abs="0" NOx_abs="0" fuel_abs="0" electricity_abs="0"
            CO_normed="0" CO2_normed="0" HC_normed="0" PMx_normed="0" NOx_normed="0" fuel_normed="0" electricity_normed="0"
            traveltime="6.04" CO_perVeh="0" CO2_perVeh="0" HC_perVeh="0" PMx_perVeh="0" NOx_perVeh="0" fuel_perVeh="0" electricity_perVeh="0"/>
        <edge id="gneE63" sampledSeconds="7.32" CO_abs="0" CO2_abs="0" HC_abs="0" PMx_abs="0" NOx_abs="0" fuel_abs="0" electricity_abs="0"
            CO_normed="0" CO2_normed="0" HC_normed="0" PMx_normed="0" NOx_normed="0" fuel_normed="0" electricity_normed="0"
            traveltime="6.92" CO_perVeh="0" CO2_perVeh="0" HC_perVeh="0" PMx_perVeh="0" NOx_perVeh="0" fuel_perVeh="0" electricity_perVeh="0"/>
        <edge id="gneE64" sampledSeconds="2.62" CO_abs="0" CO2_abs="0" HC_abs="0" PMx_abs="0" NOx_abs="0" fuel_abs="0" electricity_abs="0"
            CO_normed="0" CO2_normed="0" HC_normed="0" PMx_normed="0" NOx_normed="0" fuel_normed="0" electricity_normed="0"
            traveltime="8.64" CO_perVeh="0" CO2_perVeh="0" HC_perVeh="0" PMx_perVeh="0" NOx_perVeh="0" fuel_perVeh="0" electricity_perVeh="0"/>
        <edge id="gneE91" sampledSeconds="6.28" CO_abs="0" CO2_abs="0" HC_abs="0" PMx_abs="0" NOx_abs="0" fuel_abs="0" electricity_abs="0"
            CO_normed="0" CO2_normed="0" HC_normed="0" PMx_normed="0" NOx_normed="0" fuel_normed="0" electricity_normed="0"
            traveltime="5.94" CO_perVeh="0" CO2_perVeh="0" HC_perVeh="0" PMx_perVeh="0" NOx_perVeh="0" fuel_perVeh="0" electricity_perVeh="0"/>
    </interval>
    <interval begin="75.00" end="150.00" id="edgeDetector">
        <edge id="-gneE87" sampledSeconds="4.51" CO_abs="392.985338" CO2_abs="23259.219133" HC_abs="2.343070" PMx_abs="0.457968" NOx_abs="9.903445" fuel_abs="9.998092" electricity_abs="0"
            CO_normed="220.365610" CO2_normed="13042.552785" HC_normed="1.313871" PMx_normed="0.256805" NOx_normed="5.553333" fuel_normed="5.606407" electricity_normed="0"
            traveltime="8.11" CO_perVeh="706.643586" CO2_perVeh="41823.387397" HC_perVeh="4.213174" PMx_perVeh="0.823492" NOx_perVeh="17.807803" fuel_perVeh="17.977993" electricity_perVeh="0"/>
        <edge id="gneE104" sampledSeconds="9.75" CO_abs="855.446873" CO2_abs="44698.295123" HC_abs="4.948677" PMx_abs="0.838462" NOx_abs="18.723210" fuel_abs="19.213941" electricity_abs="0"
            CO_normed="458.275111" CO2_normed="23945.515245" HC_normed="2.651077" PMx_normed="0.449176" NOx_normed="10.030291" fuel_normed="10.293182" electricity_normed="0"
            traveltime="9.76" CO_perVeh="856.402680" CO2_perVeh="44748.237353" HC_perVeh="4.954207" PMx_perVeh="0.839399" NOx_perVeh="18.744130" fuel_perVeh="19.235409" electricity_perVeh="0"/>
        <edge id="gneE123" sampledSeconds="8.35" CO_abs="0" CO2_abs="0" HC_abs="0" PMx_abs="0" NOx_abs="0" fuel_abs="0" electricity_abs="0"
            CO_normed="0" CO2_normed="0" HC_normed="0" PMx_normed="0" NOx_normed="0" fuel_normed="0" electricity_normed="0"
            traveltime="7.92" CO_perVeh="0" CO2_perVeh="0" HC_perVeh="0" PMx_perVeh="0" NOx_perVeh="0" fuel_perVeh="0" electricity_perVeh="0"/>
        <edge id="gneE53" sampledSeconds="8.01" CO_abs="0" CO2_abs="0" HC_abs="0" PMx_abs="0" NOx_abs="0" fuel_abs="0" electricity_abs="0"
            CO_normed="0" CO2_normed="0" HC_normed="0" PMx_normed="0" NOx_normed="0" fuel_normed="0" electricity_normed="0"
            traveltime="7.57" CO_perVeh="0" CO2_perVeh="0" HC_perVeh="0" PMx_perVeh="0" NOx_perVeh="0" fuel_perVeh="0" electricity_perVeh="0"/>
        <edge id="gneE60" sampledSeconds="6.46" CO_abs="0" CO2_abs="0" HC_abs="0" PMx_abs="0" NOx_abs="0" fuel_abs="0" electricity_abs="0"
            CO_normed="0" CO2_normed="0" HC_normed="0" PMx_normed="0" NOx_normed="0" fuel_normed="0" electricity_normed="0"
            traveltime="6.10" CO_perVeh="0" CO2_perVeh="0" HC_perVeh="0" PMx_perVeh="0" NOx_perVeh="0" fuel_perVeh="0" electricity_perVeh="0"/>
        <edge id="gneE64" sampledSeconds="4.67" CO_abs="0" CO2_abs="0" HC_abs="0" PMx_abs="0" NOx_abs="0" fuel_abs="0" electricity_abs="0"
            CO_normed="0" CO2_normed="0" HC_normed="0" PMx_normed="0" NOx_normed="0" fuel_normed="0" electricity_normed="0"
            traveltime="6.18" CO_perVeh="0" CO2_perVeh="0" HC_perVeh="0" PMx_perVeh="0" NOx_perVeh="0" fuel_perVeh="0" electricity_perVeh="0"/>
        <edge id="gneE75" sampledSeconds="7.26" CO_abs="96.144816" CO2_abs="10415.227092" HC_abs="0.679489" PMx_abs="0.151741" NOx_abs="3.981494" fuel_abs="4.477062" electricity_abs="0"
            CO_normed="53.912981" CO2_normed="5840.314257" HC_normed="0.381022" PMx_normed="0.085088" NOx_normed="2.232613" fuel_normed="2.510502" electricity_normed="0"
            traveltime="6.85" CO_perVeh="90.838811" CO2_perVeh="9840.435310" HC_perVeh="0.641990" PMx_perVeh="0.143367" NOx_perVeh="3.761765" fuel_perVeh="4.229984" electricity_perVeh="0"/>
        <edge id="gneE80" sampledSeconds="7.35" CO_abs="107.073737" CO2_abs="10485.808862" HC_abs="0.731952" PMx_abs="0.161113" NOx_abs="4.077975" fuel_abs="4.507397" electricity_abs="0"
            CO_normed="60.041348" CO2_normed="5879.892820" HC_normed="0.410440" PMx_normed="0.090344" NOx_normed="2.286715" fuel_normed="2.527512" electricity_normed="0"
            traveltime="6.95" CO_perVeh="101.164590" CO2_perVeh="9907.121839" HC_perVeh="0.691557" PMx_perVeh="0.152222" NOx_perVeh="3.852921" fuel_perVeh="4.258644" electricity_perVeh="0"/>
        <edge id="gneE81" sampledSeconds="7.19" CO_abs="151.953456" CO2_abs="15304.809987" HC_abs="1.048785" PMx_abs="0.234536" NOx_abs="5.938536" fuel_abs="6.578876" electricity_abs="0"
            CO_normed="85.207545" CO2_normed="8582.136441" HC_normed="0.588104" PMx_normed="0.131515" NOx_normed="3.330020" fuel_normed="3.689089" electricity_normed="0"
            traveltime="6.80" CO_perVeh="143.567504" CO2_perVeh="14460.173674" HC_perVeh="0.990905" PMx_perVeh="0.221592" NOx_perVeh="5.610802" fuel_perVeh="6.215803" electricity_perVeh="0"/>
        <edge id="gneE82" sampledSeconds="8.56" CO_abs="97.450262" CO2_abs="12060.607612" HC_abs="0.718767" PMx_abs="0.147586" NOx_abs="4.418643" fuel_abs="5.184373" electricity_abs="0"
            CO_normed="54.645007" CO2_normed="6762.957539" HC_normed="0.403047" PMx_normed="0.082758" NOx_normed="2.477744" fuel_normed="2.907125" electricity_normed="0"
            traveltime="8.09" CO_perVeh="92.072212" CO2_perVeh="11395.011165" HC_perVeh="0.679100" PMx_perVeh="0.139441" NOx_perVeh="4.174789" fuel_perVeh="4.898260" electricity_perVeh="0"/>
    </interval>
    <interval begin="150.00" end="225.00" id="edgeDetector">
        <edge id="-gneE119" sampledSeconds="9.78" CO_abs="0" CO2_abs="0" HC_abs="0" PMx_abs="0" NOx_abs="0" fuel_abs="0" electricity_abs="0"
            CO_normed="0" CO2_normed="0" HC_normed="0" PMx_normed="0" NOx_normed="0" fuel_normed="0" electricity_normed="0"
            traveltime="9.79" CO_perVeh="0" CO2_perVeh="0" HC_perVeh="0" PMx_perVeh="0" NOx_perVeh="0" fuel_perVeh="0" electricity_perVeh="0"/>
        <edge id="-gneE12" sampledSeconds="8.26" CO_abs="361.221454" CO2_abs="26983.083423" HC_abs="2.279116" PMx_abs="0.464836" NOx_abs="10.929096" fuel_abs="11.598848" electricity_abs="0"
            CO_normed="202.554086" CO2_normed="15130.700985" HC_normed="1.278009" PMx_normed="0.260656" NOx_normed="6.128465" fuel_normed="6.504027" electricity_normed="0"
            traveltime="7.80" CO_perVeh="341.286495" CO2_perVeh="25493.950784" HC_perVeh="2.153337" PMx_perVeh="0.439183" NOx_perVeh="10.325945" fuel_perVeh="10.958735" electricity_perVeh="0"/>
        <edge id="-gneE13" sampledSeconds="8.68" CO_abs="391.759300" CO2_abs="28004.282057" HC_abs="2.440164" PMx_abs="0.477743" NOx_abs="11.351561" fuel_abs="12.037834" electricity_abs="0"
            CO_normed="219.678112" CO2_normed="15703.335733" HC_normed="1.368316" PMx_normed="0.267893" NOx_normed="6.365361" fuel_normed="6.750188" electricity_normed="0"
            traveltime="8.20" CO_perVeh="370.139030" CO2_perVeh="26458.791878" HC_perVeh="2.305497" PMx_perVeh="0.451377" NOx_perVeh="10.725095" fuel_perVeh="11.373495" electricity_perVeh="0"/>
        <edge id="-gneE45" sampledSeconds="7.87" CO_abs="357.350969" CO2_abs="27047.070490" HC_abs="2.265502" PMx_abs="0.478802" NOx_abs="11.046075" fuel_abs="11.626329" electricity_abs="0"
            CO_normed="200.383721" CO2_normed="15166.581583" HC_normed="1.270375" PMx_normed="0.268487" NOx_normed="6.194061" fuel_normed="6.519437" electricity_normed="0"
            traveltime="7.44" CO_perVeh="337.629613" CO2_perVeh="25554.406555" HC_perVeh="2.140474" PMx_perVeh="0.452378" NOx_perVeh="10.436468" fuel_perVeh="10.984699" electricity_perVeh="0"/>
        <edge id="-gneE87" sampledSeconds="4.86" CO_abs="146.427821" CO2_abs="8715.473329" HC_abs="0.870707" PMx_abs="0.152136" NOx_abs="3.569604" fuel_abs="3.746421" electricity_abs="0"
            CO_normed="82.109058" CO2_normed="4887.181306" HC_normed="0.488247" PMx_normed="0.085310" NOx_normed="2.001647" fuel_normed="2.100797" electricity_normed="0"
            traveltime="9.67" CO_perVeh="291.525281" CO2_perVeh="17351.762781" HC_perVeh="1.733503" PMx_perVeh="0.302890" NOx_perVeh="7.106777" fuel_perVeh="7.458804" electricity_perVeh="0"/>
        <edge id="gneE0" sampledSeconds="8.99" CO_abs="451.695747" CO2_abs="28417.940562" HC_abs="2.729100" PMx_abs="0.528329" NOx_abs="11.828351" fuel_abs="12.215625" electricity_abs="0"
            CO_normed="253.287335" CO2_normed="15935.293773" HC_normed="1.530336" PMx_normed="0.296259" NOx_normed="6.632720" fuel_normed="6.849883" electricity_normed="0"
            traveltime="8.49" CO_perVeh="426.767725" CO2_perVeh="26849.621547" HC_perVeh="2.578487" PMx_perVeh="0.499171" NOx_perVeh="11.175572" fuel_perVeh="11.541474" electricity_perVeh="0"/>
        <edge id="gneE112" sampledSeconds="6.75" CO_abs="0" CO2_abs="0" HC_abs="0" PMx_abs="0" NOx_abs="0" fuel_abs="0" electricity_abs="0"
            CO_normed="0" CO2_normed="0" HC_normed="0" PMx_normed="0" NOx_normed="0" fuel_normed="0" electricity_normed="0"
            traveltime="6.37" CO_perVeh="0" CO2_perVeh="0" HC_perVeh="0" PMx_perVeh="0" NOx_perVeh="0" fuel_perVeh="0" electricity_perVeh="0"/>
        <edge id="gneE113" sampledSeconds="6.02" CO_abs="0" CO2_abs="0" HC_abs="0" PMx_abs="0" NOx_abs="0" fuel_abs="0" electricity_abs="0"
            CO_normed="0" CO2_normed="0" HC_normed="0" PMx_normed="0" NOx_normed="0" fuel_normed="0" electricity_normed="0"
            traveltime="6.40" CO_perVeh="0" CO2_perVeh="0" HC_perVeh="0" PMx_perVeh="0" NOx_perVeh="0" fuel_perVeh="0" electricity_perVeh="0"/>
        <edge id="gneE122" sampledSeconds="8.08" CO_abs="211.817894" CO2_abs="20783.923150" HC_abs="1.445445" PMx_abs="0.302334" NOx_abs="7.986829" fuel_abs="8.934136" electricity_abs="0"
            CO_normed="109.560980" CO2_normed="10750.305077" HC_normed="0.747644" PMx_normed="0.156379" NOx_normed="4.131119" fuel_normed="4.621105" electricity_normed="0"
            traveltime="7.67" CO_perVeh="200.988759" CO2_perVeh="19721.350391" HC_perVeh="1.371547" PMx_perVeh="0.286877" NOx_perVeh="7.578505" fuel_perVeh="8.477381" electricity_perVeh="0"/>
        <edge id="gneE41" sampledSeconds="8.26" CO_abs="237.159954" CO2_abs="14832.411722" HC_abs="1.432961" PMx_abs="0.288165" NOx_abs="6.267016" fuel_abs="6.375784" electricity_abs="0"
            CO_normed="132.986890" CO2_normed="8317.240218" HC_normed="0.803530" PMx_normed="0.161588" NOx_normed="3.514215" fuel_normed="3.575206" electricity_normed="0"
            traveltime="7.80" CO_perVeh="224.071657" CO2_perVeh="14013.845954" HC_perVeh="1.353879" PMx_perVeh="0.272262" NOx_perVeh="5.921154" fuel_perVeh="6.023919" electricity_perVeh="0"/>
        <edge id="gneE88" sampledSeconds="8.97" CO_abs="428.843055" CO2_abs="29838.884505" HC_abs="2.652928" PMx_abs="0.515465" NOx_abs="12.135523" fuel_abs="12.826451" electricity_abs="0"
            CO_normed="240.472741" CO2_normed="16732.084769" HC_normed="1.487623" PMx_normed="0.289046" NOx_normed="6.804966" fuel_normed="7.192402" electricity_normed="0"
            traveltime="8.48" CO_perVeh="405.176219" CO2_perVeh="28192.146949" HC_perVeh="2.506519" PMx_perVeh="0.487018" NOx_perVeh="11.465792" fuel_perVeh="12.118590" electricity_perVeh="0"/>
    </interval>
    <interval begin="225.00" end="300.00" id="edgeDetector">
        <edge id="-gneE14" sampledSeconds="7.57" CO_abs="0" CO2_abs="0" HC_abs="0" PMx_abs="0" NOx_abs="0" fuel_abs="0" electricity_abs="0"
            CO_normed="0" CO2_normed="0" HC_normed="0" PMx_normed="0" NOx_normed="0" fuel_normed="0" electricity_normed="0"
            traveltime="7.15" CO_perVeh="0" CO2_perVeh="0" HC_perVeh="0" PMx_perVeh="0" NOx_perVeh="0" fuel_perVeh="0" electricity_perVeh="0"/>
        <edge id="-gneE24" sampledSeconds="8.00" CO_abs="0" CO2_abs="0" HC_abs="0" PMx_abs="0" NOx_abs="0" fuel_abs="0" electricity_abs="0"
            CO_normed="0" CO2_normed="0" HC_normed="0" PMx_normed="0" NOx_normed="0" fuel_normed="0" electricity_normed="0"
            traveltime="7.56" CO_perVeh="0" CO2_perVeh="0" HC_perVeh="0" PMx_perVeh="0" NOx_perVeh="0" fuel_perVeh="0" electricity_perVeh="0"/>
        <edge id="-gneE25" sampledSeconds="9.49" CO_abs="0" CO2_abs="0" HC_abs="0" PMx_abs="0" NOx_abs="0" fuel_abs="0" electricity_abs="0"
            CO_normed="0" CO2_normed="0" HC_normed="0" PMx_normed="0" NOx_normed="0" fuel_normed="0" electricity_normed="0"
            traveltime="8.97" CO_perVeh="0" CO2_perVeh="0" HC_perVeh="0" PMx_perVeh="0" NOx_perVeh="0" fuel_perVeh="0" electricity_perVeh="0"/>
        <edge id="gneE10" sampledSeconds="7.87" CO_abs="0" CO2_abs="0" HC_abs="0" PMx_abs="0" NOx_abs="0" fuel_abs="0" electricity_abs="0"
            CO_normed="0" CO2_normed="0" HC_normed="0" PMx_normed="0" NOx_normed="0" fuel_normed="0" electricity_normed="0"
            traveltime="7.44" CO_perVeh="0" CO2_perVeh="0" HC_perVeh="0" PMx_perVeh="0" NOx_perVeh="0" fuel_perVeh="0" electricity_perVeh="0"/>
        <edge id="gneE113" sampledSeconds="0.74" CO_abs="0" CO2_abs="0" HC_abs="0" PMx_abs="0" NOx_abs="0" fuel_abs="0" electricity_abs="0"
            CO_normed="0" CO2_normed="0" HC_normed="0" PMx_normed="0" NOx_normed="0" fuel_normed="0" electricity_normed="0"
            traveltime="6.30" CO_perVeh="0" CO2_perVeh="0" HC_perVeh="0" PMx_perVeh="0" NOx_perVeh="0" fuel_perVeh="0" electricity_perVeh="0"/>
        <edge id="gneE9" sampledSeconds="6.64" CO_abs="0" CO2_abs="0" HC_abs="0" PMx_abs="0" NOx_abs="0" fuel_abs="0" electricity_abs="0"
            CO_normed="0" CO2_normed="0" HC_normed="0" PMx_normed="0" NOx_normed="0" fuel_normed="0" electricity_normed="0"
            traveltime="6.28" CO_perVeh="0" CO2_perVeh="0" HC_perVeh="0" PMx_perVeh="0" NOx_perVeh="0" fuel_perVeh="0" electricity_perVeh="0"/>
    </interval>
    <interval begin="300.00" end="371.00" id="edgeDetector">
        <edge id="-gneE14" sampledSeconds="6.35" CO_abs="119.924921" CO2_abs="15264.581360" HC_abs="0.902192" PMx_abs="0.230603" NOx_abs="5.806348" fuel_abs="6.561571" electricity_abs="0"
            CO_normed="71.036217" CO2_normed="9041.808098" HC_normed="0.534403" PMx_normed="0.136595" NOx_normed="3.439327" fuel_normed="3.886675" electricity_normed="0"
            traveltime="6.00" CO_perVeh="113.306548" CO2_perVeh="14422.165170" HC_perVeh="0.852402" PMx_perVeh="0.217877" NOx_perVeh="5.485909" fuel_perVeh="6.199453" electricity_perVeh="0"/>
        <edge id="gneE100" sampledSeconds="10.04" CO_abs="962.382334" CO2_abs="48497.819613" HC_abs="5.535693" PMx_abs="0.971936" NOx_abs="20.743925" fuel_abs="20.847130" electricity_abs="0"
            CO_normed="570.056667" CO2_normed="28727.153910" HC_normed="3.279008" PMx_normed="0.575716" NOx_normed="12.287437" fuel_normed="12.348570" electricity_normed="0"
            traveltime="10.05" CO_perVeh="963.507927" CO2_perVeh="48554.542209" HC_perVeh="5.542168" PMx_perVeh="0.973073" NOx_perVeh="20.768187" fuel_perVeh="20.871512" electricity_perVeh="0"/>
        <edge id="gneE108" sampledSeconds="7.20" CO_abs="525.105182" CO2_abs="35301.145861" HC_abs="3.222028" PMx_abs="0.682926" NOx_abs="14.819020" fuel_abs="15.174344" electricity_abs="0"
            CO_normed="311.040321" CO2_normed="20910.248305" HC_normed="1.908533" PMx_normed="0.404524" NOx_normed="8.777885" fuel_normed="8.988357" electricity_normed="0"
            traveltime="6.80" CO_perVeh="496.125867" CO2_perVeh="33352.959004" HC_perVeh="3.044212" PMx_perVeh="0.645237" NOx_perVeh="14.001194" fuel_perVeh="14.336908" electricity_perVeh="0"/>
        <edge id="gneE109" sampledSeconds="6.28" CO_abs="111.910796" CO2_abs="13573.496554" HC_abs="0.828269" PMx_abs="0.209820" NOx_abs="5.203169" fuel_abs="5.834644" electricity_abs="0"
            CO_normed="66.289138" CO2_normed="8040.112477" HC_normed="0.490616" PMx_normed="0.124285" NOx_normed="3.082041" fuel_normed="3.456088" electricity_normed="0"
            traveltime="5.94" CO_perVeh="105.734703" CO2_perVeh="12824.407340" HC_perVeh="0.782558" PMx_perVeh="0.198240" NOx_perVeh="4.916019" fuel_perVeh="5.512644" electricity_perVeh="0"/>
        <edge id="gneE19" sampledSeconds="6.41" CO_abs="35.956392" CO2_abs="12693.154771" HC_abs="0.452052" PMx_abs="0.131955" NOx_abs="4.352777" fuel_abs="5.456274" electricity_abs="0"
            CO_normed="21.298376" CO2_normed="7518.651635" HC_normed="0.267768" PMx_normed="0.078162" NOx_normed="2.578320" fuel_normed="3.231964" electricity_normed="0"
            traveltime="6.06" CO_perVeh="33.972043" CO2_perVeh="11992.649541" HC_perVeh="0.427105" PMx_perVeh="0.124673" NOx_perVeh="4.112558" fuel_perVeh="5.155155" electricity_perVeh="0"/>
        <edge id="gneE20" sampledSeconds="6.17" CO_abs="102.725269" CO2_abs="16924.421649" HC_abs="0.854448" PMx_abs="0.231788" NOx_abs="6.224957" fuel_abs="7.275079" electricity_abs="0"
            CO_normed="60.848191" CO2_normed="10024.996370" HC_normed="0.506123" PMx_normed="0.137297" NOx_normed="3.687285" fuel_normed="4.309313" electricity_normed="0"
            traveltime="5.83" CO_perVeh="97.056104" CO2_perVeh="15990.402794" HC_perVeh="0.807293" PMx_perVeh="0.218996" NOx_perVeh="5.881417" fuel_perVeh="6.873584" electricity_perVeh="0"/>
        <edge id="gneE50" sampledSeconds="6.37" CO_abs="82.740485" CO2_abs="15828.404401" HC_abs="0.716610" PMx_abs="0.194951" NOx_abs="5.670665" fuel_abs="6.803968" electricity_abs="0"
            CO_normed="49.010423" CO2_normed="9375.782520" HC_normed="0.424476" PMx_normed="0.115477" NOx_normed="3.358957" fuel_normed="4.030256" electricity_normed="0"
            traveltime="6.02" CO_perVeh="78.174233" CO2_perVeh="14954.872149" HC_perVeh="0.677062" PMx_perVeh="0.184192" NOx_perVeh="5.357714" fuel_perVeh="6.428473" electricity_perVeh="0"/>
        <edge id="gneE59" sampledSeconds="8.01" CO_abs="172.161676" CO2_abs="13397.706153" HC_abs="1.097271" PMx_abs="0.216524" NOx_abs="5.272936" fuel_abs="5.759110" electricity_abs="0"
            CO_normed="101.978089" CO2_normed="7935.984953" HC_normed="0.649957" PMx_normed="0.128255" NOx_normed="3.123366" fuel_normed="3.411346" electricity_normed="0"
            traveltime="7.57" CO_perVeh="162.660480" CO2_perVeh="12658.318396" HC_perVeh="1.036716" PMx_perVeh="0.204574" NOx_perVeh="4.981935" fuel_perVeh="5.441279" electricity_perVeh="0"/>
        <edge id="gneE60" sampledSeconds="6.94" CO_abs="465.549290" CO2_abs="34345.777521" HC_abs="2.940038" PMx_abs="0.656372" NOx_abs="14.297261" fuel_abs="14.763658" electricity_abs="0"
            CO_normed="275.763039" CO2_normed="20344.346300" HC_normed="1.741500" PMx_normed="0.388795" NOx_normed="8.468827" fuel_normed="8.745092" electricity_normed="0"
            traveltime="6.75" CO_perVeh="452.889484" CO2_perVeh="33411.803615" HC_perVeh="2.860089" PMx_perVeh="0.638523" NOx_perVeh="13.908472" fuel_perVeh="14.362186" electricity_perVeh="0"/>
    </interval>
</meandata>
