<?xml version="1.0" encoding="UTF-8"?>

<!-- generated on 01/13/21 10:54:07 by Eclipse SUMO GUI Version 1.7.0
<configuration xmlns:xsi="http://www.w3.org/2001/XMLSchema-instance" xsi:noNamespaceSchemaLocation="http://sumo.dlr.de/xsd/sumoConfiguration.xsd">

    <input>
        <net-file value="base_case.net.xml"/>
        <route-files value="base_case.rou.xml"/>
        <additional-files value="base_case.add.xml"/>
    </input>

    <output>
        <emission-output value="emissionOutput.xml"/>
        <tripinfo-output value="tripinfo.xml"/>
    </output>

    <traci_server>
        <remote-port value="51979"/>
    </traci_server>

</configuration>
-->

<tripinfos xmlns:xsi="http://www.w3.org/2001/XMLSchema-instance" xsi:noNamespaceSchemaLocation="http://sumo.dlr.de/xsd/tripinfo_file.xsd">
    <tripinfo id="veh1" depart="10.00" departLane="-gneE118_0" departPos="5.10" departSpeed="0.00" departDelay="0.00" arrival="104.00" arrivalLane="gneE123_0" arrivalPos="92.80" arrivalSpeed="14.44" duration="94.00" routeLength="1189.32" waitingTime="0.00" waitingCount="0" stopTime="0.00" timeLoss="10.66" rerouteNo="1" devices="tripinfo_veh1 routing_veh1 emissions_veh1" vType="eVehicle" speedFactor="1.06" vaporized="">
        <emissions CO_abs="0" CO2_abs="0" HC_abs="0" PMx_abs="0" NOx_abs="0" fuel_abs="0" electricity_abs="0"/>
    </tripinfo>
    <tripinfo id="veh2" depart="100.00" departLane="gneE104_0" departPos="5.10" departSpeed="0.00" departDelay="0.00" arrival="220.00" arrivalLane="gneE122_0" arrivalPos="92.80" arrivalSpeed="12.11" duration="120.00" routeLength="1291.49" waitingTime="0.00" waitingCount="0" stopTime="0.00" timeLoss="19.88" rerouteNo="1" devices="tripinfo_veh2 routing_veh2 emissions_veh2" vType="normalVehicle" speedFactor="0.94" vaporized="">
        <emissions CO_abs="5382.143119" CO2_abs="364750.078582" HC_abs="33.084691" PMx_abs="6.416352" NOx_abs="149.088619" fuel_abs="156.790290" electricity_abs="0"/>
    </tripinfo>
    <tripinfo id="veh3" depart="200.00" departLane="-gneE119_0" departPos="5.10" departSpeed="0.00" departDelay="0.00" arrival="269.00" arrivalLane="-gneE14_0" arrivalPos="85.60" arrivalSpeed="13.44" duration="69.00" routeLength="782.12" waitingTime="0.00" waitingCount="0" stopTime="0.00" timeLoss="10.76" rerouteNo="1" devices="tripinfo_veh3 routing_veh3 emissions_veh3" vType="eVehicle" speedFactor="1.01" vaporized="">
        <emissions CO_abs="0" CO2_abs="0" HC_abs="0" PMx_abs="0" NOx_abs="0" fuel_abs="0" electricity_abs="0"/>
    </tripinfo>
    <tripinfo id="veh4" depart="300.00" departLane="gneE100_0" departPos="5.10" departSpeed="0.00" departDelay="0.00" arrival="370.00" arrivalLane="gneE60_0" arrivalPos="85.60" arrivalSpeed="14.94" duration="70.00" routeLength="880.08" waitingTime="0.00" waitingCount="0" stopTime="0.00" timeLoss="9.96" rerouteNo="1" devices="tripinfo_veh4 routing_veh4 emissions_veh4" vType="normalVehicle" speedFactor="1.08" vaporized="">
        <emissions CO_abs="2910.210401" CO2_abs="229565.419331" HC_abs="18.587110" PMx_abs="3.927331" NOx_abs="91.904137" fuel_abs="98.680123" electricity_abs="0"/>
    </tripinfo>
</tripinfos>
