<?xml version="1.0" encoding="UTF-8"?>

<!-- generated on 02/11/21 12:18:18 by Eclipse SUMO GUI Version 1.7.0
<configuration xmlns:xsi="http://www.w3.org/2001/XMLSchema-instance" xsi:noNamespaceSchemaLocation="http://sumo.dlr.de/xsd/sumoConfiguration.xsd">

    <input>
        <net-file value="casebase.net.xml"/>
        <route-files value="casebase.rou.xml"/>
        <additional-files value="casebase.add.xml"/>
    </input>

    <output>
        <emission-output value="emissionOutput.xml"/>
        <tripinfo-output value="tripinfo.xml"/>
    </output>

    <processing>
        <ignore-route-errors value="true"/>
    </processing>

    <traci_server>
        <remote-port value="56011"/>
    </traci_server>

</configuration>
-->

<tripinfos xmlns:xsi="http://www.w3.org/2001/XMLSchema-instance" xsi:noNamespaceSchemaLocation="http://sumo.dlr.de/xsd/tripinfo_file.xsd">
    <tripinfo id="veh19" depart="84.00" departLane="-A_0" departPos="5.10" departSpeed="0.00" departDelay="0.00" arrival="1130.00" arrivalLane="C_0" arrivalPos="1742.80" arrivalSpeed="16.05" duration="1046.00" routeLength="15744.90" waitingTime="0.00" waitingCount="0" stopTime="0.00" timeLoss="66.66" rerouteNo="1" devices="tripinfo_veh19 routing_veh19 emissions_veh19" vType="eVehicle" speedFactor="1.16" vaporized="">
        <emissions CO_abs="0" CO2_abs="0" HC_abs="0" PMx_abs="0" NOx_abs="0" fuel_abs="0" electricity_abs="0"/>
    </tripinfo>
    <tripinfo id="veh0" depart="1.00" departLane="-D_0" departPos="5.10" departSpeed="0.00" departDelay="0.00" arrival="1137.00" arrivalLane="B_0" arrivalPos="1742.80" arrivalSpeed="13.76" duration="1136.00" routeLength="15744.90" waitingTime="0.00" waitingCount="0" stopTime="0.00" timeLoss="66.50" rerouteNo="1" devices="tripinfo_veh0 routing_veh0 emissions_veh0" vType="authority@veh0" speedFactor="1.06" vaporized="">
        <emissions CO_abs="48949.331377" CO2_abs="2507485.076188" HC_abs="258.023293" PMx_abs="92.927716" NOx_abs="566.190866" fuel_abs="1077.964467" electricity_abs="0"/>
    </tripinfo>
    <tripinfo id="veh4" depart="15.00" departLane="-E_0" departPos="5.10" departSpeed="0.00" departDelay="0.00" arrival="1171.00" arrivalLane="G_0" arrivalPos="1742.80" arrivalSpeed="13.40" duration="1156.00" routeLength="15744.90" waitingTime="0.00" waitingCount="0" stopTime="0.00" timeLoss="55.61" rerouteNo="1" devices="tripinfo_veh4 routing_veh4 emissions_veh4" vType="authority@veh4" speedFactor="1.03" vaporized="">
        <emissions CO_abs="0" CO2_abs="0" HC_abs="0" PMx_abs="0" NOx_abs="0" fuel_abs="0" electricity_abs="0"/>
    </tripinfo>
    <tripinfo id="veh6" depart="22.00" departLane="-B_0" departPos="5.10" departSpeed="0.00" departDelay="0.00" arrival="1177.00" arrivalLane="D_0" arrivalPos="1742.80" arrivalSpeed="13.85" duration="1155.00" routeLength="15744.90" waitingTime="0.00" waitingCount="0" stopTime="0.00" timeLoss="70.92" rerouteNo="1" devices="tripinfo_veh6 routing_veh6 emissions_veh6" vType="authority@veh6" speedFactor="1.05" vaporized="">
        <emissions CO_abs="38276.077379" CO2_abs="2545667.701247" HC_abs="401.550834" PMx_abs="72.644582" NOx_abs="736.680584" fuel_abs="1094.245567" electricity_abs="0"/>
    </tripinfo>
    <tripinfo id="veh1" depart="4.00" departLane="-D_0" departPos="5.10" departSpeed="0.00" departDelay="3.00" arrival="1287.00" arrivalLane="B_0" arrivalPos="1742.80" arrivalSpeed="12.85" duration="1283.00" routeLength="15744.90" waitingTime="0.00" waitingCount="0" stopTime="0.00" timeLoss="74.54" rerouteNo="1" devices="tripinfo_veh1 routing_veh1 emissions_veh1" vType="highEmissions" speedFactor="0.94" vaporized="">
        <emissions CO_abs="39871.313388" CO2_abs="2584879.472249" HC_abs="399.327819" PMx_abs="73.023836" NOx_abs="779.617497" fuel_abs="1111.088314" electricity_abs="0"/>
    </tripinfo>
    <tripinfo id="veh2" depart="7.00" departLane="-D_0" departPos="5.10" departSpeed="0.00" departDelay="5.00" arrival="1289.00" arrivalLane="B_0" arrivalPos="1742.80" arrivalSpeed="13.78" duration="1282.00" routeLength="15744.90" waitingTime="0.00" waitingCount="0" stopTime="0.00" timeLoss="159.44" rerouteNo="1" devices="tripinfo_veh2 routing_veh2 emissions_veh2" vType="hovGasolinaEuroSix" speedFactor="1.01" vaporized="">
        <emissions CO_abs="337.797653" CO2_abs="2128216.185953" HC_abs="95.915521" PMx_abs="39.258751" NOx_abs="3492.505300" fuel_abs="800.708425" electricity_abs="0"/>
    </tripinfo>
    <tripinfo id="veh3" depart="10.00" departLane="-D_0" departPos="5.10" departSpeed="0.00" departDelay="8.00" arrival="1290.00" arrivalLane="B_0" arrivalPos="1742.80" arrivalSpeed="14.61" duration="1280.00" routeLength="15744.90" waitingTime="0.00" waitingCount="0" stopTime="0.00" timeLoss="232.91" rerouteNo="1" devices="tripinfo_veh3 routing_veh3 emissions_veh3" vType="highEmissions" speedFactor="1.08" vaporized="">
        <emissions CO_abs="64850.976752" CO2_abs="3366343.013089" HC_abs="594.442316" PMx_abs="113.096915" NOx_abs="1041.427837" fuel_abs="1447.034828" electricity_abs="0"/>
    </tripinfo>
    <tripinfo id="veh8" depart="32.00" departLane="-B_0" departPos="5.10" departSpeed="0.00" departDelay="0.00" arrival="1315.00" arrivalLane="D_0" arrivalPos="1742.80" arrivalSpeed="12.61" duration="1283.00" routeLength="15744.90" waitingTime="0.00" waitingCount="0" stopTime="0.00" timeLoss="73.58" rerouteNo="1" devices="tripinfo_veh8 routing_veh8 emissions_veh8" vType="normalVehicle" speedFactor="0.94" vaporized="">
        <emissions CO_abs="21934.833826" CO2_abs="2472900.770385" HC_abs="156.812404" PMx_abs="33.549920" NOx_abs="928.919914" fuel_abs="1062.997714" electricity_abs="0"/>
    </tripinfo>
    <tripinfo id="veh51" depart="202.00" departLane="-A_0" departPos="5.10" departSpeed="0.00" departDelay="0.00" arrival="1465.00" arrivalLane="C_0" arrivalPos="1742.80" arrivalSpeed="15.94" duration="1263.00" routeLength="19233.74" waitingTime="0.00" waitingCount="0" stopTime="0.00" timeLoss="76.12" rerouteNo="2" devices="tripinfo_veh51 routing_veh51 emissions_veh51" vType="authority@veh51" speedFactor="1.17" vaporized="">
        <emissions CO_abs="61853.682318" CO2_abs="3099374.630893" HC_abs="327.386578" PMx_abs="119.249721" NOx_abs="689.649690" fuel_abs="1332.414651" electricity_abs="0"/>
    </tripinfo>
    <tripinfo id="veh14" depart="71.00" departLane="-B_0" departPos="5.10" departSpeed="0.00" departDelay="0.00" arrival="1562.00" arrivalLane="D_0" arrivalPos="1742.80" arrivalSpeed="12.83" duration="1491.00" routeLength="19233.74" waitingTime="0.00" waitingCount="0" stopTime="0.00" timeLoss="90.80" rerouteNo="3" devices="tripinfo_veh14 routing_veh14 emissions_veh14" vType="dieselEuroSix" speedFactor="0.99" vaporized="">
        <emissions CO_abs="312.986729" CO2_abs="2890720.639889" HC_abs="99.733424" PMx_abs="0" NOx_abs="4972.556929" fuel_abs="1087.643349" electricity_abs="0"/>
    </tripinfo>
    <tripinfo id="veh22" depart="91.00" departLane="-H_0" departPos="5.10" departSpeed="0.00" departDelay="0.00" arrival="1596.00" arrivalLane="F_0" arrivalPos="1742.80" arrivalSpeed="12.78" duration="1505.00" routeLength="19233.74" waitingTime="0.00" waitingCount="0" stopTime="0.00" timeLoss="81.50" rerouteNo="2" devices="tripinfo_veh22 routing_veh22 emissions_veh22" vType="normalVehicle" speedFactor="0.98" vaporized="">
        <emissions CO_abs="24218.626840" CO2_abs="2902351.327607" HC_abs="177.281427" PMx_abs="40.036198" NOx_abs="1089.761509" fuel_abs="1247.598906" electricity_abs="0"/>
    </tripinfo>
    <tripinfo id="veh61" depart="238.00" departLane="-A_0" departPos="5.10" departSpeed="0.00" departDelay="0.00" arrival="1598.00" arrivalLane="C_0" arrivalPos="1742.80" arrivalSpeed="14.52" duration="1360.00" routeLength="19233.74" waitingTime="0.00" waitingCount="0" stopTime="0.00" timeLoss="119.99" rerouteNo="3" devices="tripinfo_veh61 routing_veh61 emissions_veh61" vType="authority@veh61" speedFactor="1.12" vaporized="">
        <emissions CO_abs="290.702684" CO2_abs="3027417.190971" HC_abs="103.241154" PMx_abs="0" NOx_abs="5373.236344" fuel_abs="1139.087562" electricity_abs="0"/>
    </tripinfo>
    <tripinfo id="veh32" depart="147.00" departLane="-C_0" departPos="5.10" departSpeed="0.00" departDelay="0.00" arrival="1623.00" arrivalLane="A_0" arrivalPos="1742.80" arrivalSpeed="13.95" duration="1476.00" routeLength="19233.74" waitingTime="2.00" waitingCount="1" stopTime="0.00" timeLoss="95.20" rerouteNo="3" devices="tripinfo_veh32 routing_veh32 emissions_veh32" vType="gasolineEuroSix" speedFactor="1.01" vaporized="">
        <emissions CO_abs="61974.153867" CO2_abs="3177577.008844" HC_abs="324.150512" PMx_abs="115.461473" NOx_abs="723.885619" fuel_abs="1366.037357" electricity_abs="0"/>
    </tripinfo>
    <tripinfo id="veh15" depart="73.00" departLane="-F_0" departPos="5.10" departSpeed="0.00" departDelay="0.00" arrival="1658.00" arrivalLane="H_0" arrivalPos="1742.80" arrivalSpeed="11.81" duration="1585.00" routeLength="19233.74" waitingTime="0.00" waitingCount="0" stopTime="0.00" timeLoss="87.54" rerouteNo="2" devices="tripinfo_veh15 routing_veh15 emissions_veh15" vType="dieselEuroSix" speedFactor="0.93" vaporized="">
        <emissions CO_abs="330.056331" CO2_abs="2823702.153878" HC_abs="97.988854" PMx_abs="0" NOx_abs="4767.918590" fuel_abs="1062.419635" electricity_abs="0"/>
    </tripinfo>
    <tripinfo id="veh37" depart="156.00" departLane="-F_0" departPos="7.20" departSpeed="0.00" departDelay="0.00" arrival="1660.00" arrivalLane="H_0" arrivalPos="1742.80" arrivalSpeed="14.62" duration="1504.00" routeLength="19231.64" waitingTime="0.00" waitingCount="0" stopTime="0.00" timeLoss="229.98" rerouteNo="2" devices="tripinfo_veh37 routing_veh37 emissions_veh37" vType="authority@veh37" speedFactor="1.09" vaporized="">
        <emissions CO_abs="21381.552661" CO2_abs="19249666.206847" HC_abs="544.815737" PMx_abs="415.590769" NOx_abs="120519.821571" fuel_abs="7242.947768" electricity_abs="0"/>
    </tripinfo>
    <tripinfo id="veh7" depart="25.00" departLane="-G_0" departPos="5.10" departSpeed="0.00" departDelay="0.00" arrival="1688.00" arrivalLane="E_0" arrivalPos="1742.80" arrivalSpeed="11.42" duration="1663.00" routeLength="19233.74" waitingTime="0.00" waitingCount="0" stopTime="0.00" timeLoss="96.73" rerouteNo="2" devices="tripinfo_veh7 routing_veh7 emissions_veh7" vType="highEmissions" speedFactor="0.89" vaporized="">
        <emissions CO_abs="47251.633489" CO2_abs="3075749.356895" HC_abs="460.834474" PMx_abs="84.851655" NOx_abs="953.786201" fuel_abs="1322.070422" electricity_abs="0"/>
    </tripinfo>
    <tripinfo id="veh12" depart="61.00" departLane="-G_0" departPos="5.10" departSpeed="0.00" departDelay="0.00" arrival="1690.00" arrivalLane="E_0" arrivalPos="1742.80" arrivalSpeed="14.41" duration="1629.00" routeLength="19233.74" waitingTime="0.00" waitingCount="0" stopTime="0.00" timeLoss="303.60" rerouteNo="2" devices="tripinfo_veh12 routing_veh12 emissions_veh12" vType="authority@veh12" speedFactor="1.05" vaporized="">
        <emissions CO_abs="432.535047" CO2_abs="2594342.898030" HC_abs="118.140993" PMx_abs="49.003685" NOx_abs="4248.055336" fuel_abs="976.075211" electricity_abs="0"/>
    </tripinfo>
    <tripinfo id="veh13" depart="64.00" departLane="-G_0" departPos="5.10" departSpeed="0.00" departDelay="3.00" arrival="1692.00" arrivalLane="E_0" arrivalPos="1742.80" arrivalSpeed="14.37" duration="1628.00" routeLength="19233.74" waitingTime="0.00" waitingCount="0" stopTime="0.00" timeLoss="391.42" rerouteNo="2" devices="tripinfo_veh13 routing_veh13 emissions_veh13" vType="highEmissions" speedFactor="1.12" vaporized="">
        <emissions CO_abs="80099.907824" CO2_abs="4099609.425546" HC_abs="722.937359" PMx_abs="138.240384" NOx_abs="1285.726650" fuel_abs="1762.227805" electricity_abs="0"/>
    </tripinfo>
    <tripinfo id="veh46" depart="190.00" departLane="-C_0" departPos="5.10" departSpeed="0.00" departDelay="0.00" arrival="1692.00" arrivalLane="A_0" arrivalPos="1742.80" arrivalSpeed="13.38" duration="1502.00" routeLength="19233.74" waitingTime="0.00" waitingCount="0" stopTime="0.00" timeLoss="110.03" rerouteNo="3" devices="tripinfo_veh46 routing_veh46 emissions_veh46" vType="gasolineEuroSix" speedFactor="1.00" vaporized="">
        <emissions CO_abs="65024.717674" CO2_abs="3210197.384436" HC_abs="336.173166" PMx_abs="119.364231" NOx_abs="729.806171" fuel_abs="1380.062990" electricity_abs="0"/>
    </tripinfo>
    <tripinfo id="veh47" depart="192.00" departLane="-F_0" departPos="7.20" departSpeed="0.00" departDelay="0.00" arrival="1707.00" arrivalLane="H_0" arrivalPos="1742.80" arrivalSpeed="12.90" duration="1515.00" routeLength="19231.64" waitingTime="0.00" waitingCount="0" stopTime="0.00" timeLoss="54.97" rerouteNo="2" devices="tripinfo_veh47 routing_veh47 emissions_veh47" vType="truck" speedFactor="0.95" vaporized="">
        <emissions CO_abs="17544.557021" CO2_abs="15004219.166010" HC_abs="443.371258" PMx_abs="340.937223" NOx_abs="95689.261375" fuel_abs="5645.182273" electricity_abs="0"/>
    </tripinfo>
    <tripinfo id="veh57" depart="227.00" departLane="-F_0" departPos="5.10" departSpeed="0.00" departDelay="0.00" arrival="1709.00" arrivalLane="H_0" arrivalPos="1742.80" arrivalSpeed="15.50" duration="1482.00" routeLength="19233.74" waitingTime="0.00" waitingCount="0" stopTime="0.00" timeLoss="267.40" rerouteNo="2" devices="tripinfo_veh57 routing_veh57 emissions_veh57" vType="authority@veh57" speedFactor="1.14" vaporized="">
        <emissions CO_abs="398.781629" CO2_abs="2426460.558365" HC_abs="114.758908" PMx_abs="39.596932" NOx_abs="3830.309559" fuel_abs="912.898507" electricity_abs="0"/>
    </tripinfo>
    <tripinfo id="veh63" depart="244.00" departLane="-F_0" departPos="5.10" departSpeed="0.00" departDelay="0.00" arrival="1731.00" arrivalLane="H_0" arrivalPos="1742.80" arrivalSpeed="13.68" duration="1487.00" routeLength="19233.74" waitingTime="0.00" waitingCount="0" stopTime="0.00" timeLoss="80.76" rerouteNo="2" devices="tripinfo_veh63 routing_veh63 emissions_veh63" vType="hovGasolinaEuroSix" speedFactor="0.99" vaporized="">
        <emissions CO_abs="370.909614" CO2_abs="2154037.537909" HC_abs="104.559706" PMx_abs="33.671319" NOx_abs="3333.523677" fuel_abs="810.395310" electricity_abs="0"/>
    </tripinfo>
    <tripinfo id="veh23" depart="94.00" departLane="-H_0" departPos="5.10" departSpeed="0.00" departDelay="2.00" arrival="1749.00" arrivalLane="F_0" arrivalPos="1742.80" arrivalSpeed="11.83" duration="1655.00" routeLength="19233.74" waitingTime="0.00" waitingCount="0" stopTime="0.00" timeLoss="94.73" rerouteNo="2" devices="tripinfo_veh23 routing_veh23 emissions_veh23" vType="eVehicle" speedFactor="0.89" vaporized="">
        <emissions CO_abs="0" CO2_abs="0" HC_abs="0" PMx_abs="0" NOx_abs="0" fuel_abs="0" electricity_abs="0"/>
    </tripinfo>
    <tripinfo id="veh38" depart="159.00" departLane="-H_0" departPos="5.10" departSpeed="0.00" departDelay="0.00" arrival="1751.00" arrivalLane="F_0" arrivalPos="1742.80" arrivalSpeed="14.47" duration="1592.00" routeLength="19233.74" waitingTime="0.00" waitingCount="0" stopTime="0.00" timeLoss="333.01" rerouteNo="2" devices="tripinfo_veh38 routing_veh38 emissions_veh38" vType="authority@veh38" speedFactor="1.10" vaporized="">
        <emissions CO_abs="0" CO2_abs="0" HC_abs="0" PMx_abs="0" NOx_abs="0" fuel_abs="0" electricity_abs="0"/>
    </tripinfo>
    <tripinfo id="veh9" depart="35.00" departLane="-E_0" departPos="5.10" departSpeed="0.00" departDelay="0.00" arrival="1753.00" arrivalLane="G_0" arrivalPos="1742.80" arrivalSpeed="11.67" duration="1718.00" routeLength="19233.74" waitingTime="0.00" waitingCount="0" stopTime="0.00" timeLoss="98.72" rerouteNo="2" devices="tripinfo_veh9 routing_veh9 emissions_veh9" vType="authority@veh9" speedFactor="0.86" vaporized="">
        <emissions CO_abs="31260.733754" CO2_abs="3013055.409402" HC_abs="211.274628" PMx_abs="40.024311" NOx_abs="1135.979051" fuel_abs="1295.192021" electricity_abs="0"/>
    </tripinfo>
    <tripinfo id="veh10" depart="47.00" departLane="-E_0" departPos="5.10" departSpeed="0.00" departDelay="0.00" arrival="1755.00" arrivalLane="G_0" arrivalPos="1742.80" arrivalSpeed="14.35" duration="1708.00" routeLength="19233.74" waitingTime="0.00" waitingCount="0" stopTime="0.00" timeLoss="435.11" rerouteNo="2" devices="tripinfo_veh10 routing_veh10 emissions_veh10" vType="normalVehicle" speedFactor="1.09" vaporized="">
        <emissions CO_abs="45171.773294" CO2_abs="3794140.345177" HC_abs="293.833090" PMx_abs="58.890939" NOx_abs="1491.023239" fuel_abs="1630.940593" electricity_abs="0"/>
    </tripinfo>
    <tripinfo id="veh18" depart="82.00" departLane="-E_0" departPos="5.10" departSpeed="0.00" departDelay="0.00" arrival="1756.00" arrivalLane="G_0" arrivalPos="1742.80" arrivalSpeed="12.79" duration="1674.00" routeLength="19233.74" waitingTime="0.00" waitingCount="0" stopTime="0.00" timeLoss="192.47" rerouteNo="2" devices="tripinfo_veh18 routing_veh18 emissions_veh18" vType="authority@veh18" speedFactor="0.94" vaporized="">
        <emissions CO_abs="44504.354112" CO2_abs="3792714.652825" HC_abs="290.967605" PMx_abs="59.573023" NOx_abs="1493.223280" fuel_abs="1630.326307" electricity_abs="0"/>
    </tripinfo>
    <tripinfo id="veh20" depart="85.00" departLane="-E_0" departPos="5.10" departSpeed="0.00" departDelay="0.00" arrival="1758.00" arrivalLane="G_0" arrivalPos="1742.80" arrivalSpeed="13.82" duration="1673.00" routeLength="19233.74" waitingTime="0.00" waitingCount="0" stopTime="0.00" timeLoss="309.36" rerouteNo="2" devices="tripinfo_veh20 routing_veh20 emissions_veh20" vType="gasolineEuroSix" speedFactor="1.02" vaporized="">
        <emissions CO_abs="108714.348392" CO2_abs="4215203.530638" HC_abs="527.531826" PMx_abs="184.690142" NOx_abs="938.901247" fuel_abs="1812.134203" electricity_abs="0"/>
    </tripinfo>
    <tripinfo id="veh21" depart="88.00" departLane="-E_0" departPos="5.10" departSpeed="0.00" departDelay="3.00" arrival="1760.00" arrivalLane="G_0" arrivalPos="1742.80" arrivalSpeed="13.94" duration="1672.00" routeLength="19233.74" waitingTime="0.00" waitingCount="0" stopTime="0.00" timeLoss="297.87" rerouteNo="2" devices="tripinfo_veh21 routing_veh21 emissions_veh21" vType="normalVehicle" speedFactor="1.01" vaporized="">
        <emissions CO_abs="57024.250930" CO2_abs="4428088.766609" HC_abs="363.738010" PMx_abs="75.914436" NOx_abs="1789.717428" fuel_abs="1903.440609" electricity_abs="0"/>
    </tripinfo>
    <tripinfo id="veh27" depart="111.00" departLane="-E_0" departPos="7.20" departSpeed="0.00" departDelay="0.00" arrival="1762.00" arrivalLane="G_0" arrivalPos="1742.80" arrivalSpeed="13.40" duration="1651.00" routeLength="19231.64" waitingTime="0.00" waitingCount="0" stopTime="0.00" timeLoss="226.62" rerouteNo="2" devices="tripinfo_veh27 routing_veh27 emissions_veh27" vType="truck" speedFactor="0.97" vaporized="">
        <emissions CO_abs="28277.058052" CO2_abs="25738767.543422" HC_abs="720.181491" PMx_abs="556.013195" NOx_abs="160591.160419" fuel_abs="9684.862194" electricity_abs="0"/>
    </tripinfo>
    <tripinfo id="veh40" depart="163.00" departLane="-E_0" departPos="5.10" departSpeed="0.00" departDelay="0.00" arrival="1764.00" arrivalLane="G_0" arrivalPos="1742.80" arrivalSpeed="14.08" duration="1601.00" routeLength="19233.74" waitingTime="0.00" waitingCount="0" stopTime="0.00" timeLoss="253.65" rerouteNo="2" devices="tripinfo_veh40 routing_veh40 emissions_veh40" vType="authority@veh40" speedFactor="1.03" vaporized="">
        <emissions CO_abs="448.754513" CO2_abs="2903045.340426" HC_abs="127.685728" PMx_abs="56.354829" NOx_abs="4854.611515" fuel_abs="1092.237399" electricity_abs="0"/>
    </tripinfo>
    <tripinfo id="veh16" depart="79.00" departLane="-B_0" departPos="5.10" departSpeed="0.00" departDelay="0.00" arrival="1765.00" arrivalLane="D_0" arrivalPos="1742.80" arrivalSpeed="11.24" duration="1686.00" routeLength="19233.74" waitingTime="0.00" waitingCount="0" stopTime="0.00" timeLoss="106.13" rerouteNo="3" devices="tripinfo_veh16 routing_veh16 emissions_veh16" vType="gasolineEuroSix" speedFactor="0.88" vaporized="">
        <emissions CO_abs="63869.841452" CO2_abs="3167383.986726" HC_abs="324.558110" PMx_abs="112.104418" NOx_abs="734.327133" fuel_abs="1361.658976" electricity_abs="0"/>
    </tripinfo>
    <tripinfo id="veh17" depart="82.00" departLane="-B_0" departPos="5.10" departSpeed="0.00" departDelay="3.00" arrival="1766.00" arrivalLane="D_0" arrivalPos="1742.80" arrivalSpeed="12.63" duration="1684.00" routeLength="19233.74" waitingTime="0.00" waitingCount="0" stopTime="0.00" timeLoss="210.14" rerouteNo="3" devices="tripinfo_veh17 routing_veh17 emissions_veh17" vType="hovGasolinaEuroSix" speedFactor="0.94" vaporized="">
        <emissions CO_abs="454.132910" CO2_abs="2709138.106621" HC_abs="121.815908" PMx_abs="53.645399" NOx_abs="4492.549085" fuel_abs="1019.269750" electricity_abs="0"/>
    </tripinfo>
    <tripinfo id="veh42" depart="174.00" departLane="-E_0" departPos="5.10" departSpeed="0.00" departDelay="0.00" arrival="1766.00" arrivalLane="G_0" arrivalPos="1742.80" arrivalSpeed="14.45" duration="1592.00" routeLength="19233.74" waitingTime="0.00" waitingCount="0" stopTime="0.00" timeLoss="320.19" rerouteNo="2" devices="tripinfo_veh42 routing_veh42 emissions_veh42" vType="normalVehicle" speedFactor="1.09" vaporized="">
        <emissions CO_abs="50260.909383" CO2_abs="4199849.885222" HC_abs="326.964598" PMx_abs="70.339178" NOx_abs="1677.658491" fuel_abs="1805.330861" electricity_abs="0"/>
    </tripinfo>
    <tripinfo id="veh43" depart="181.00" departLane="-E_0" departPos="7.20" departSpeed="0.00" departDelay="0.00" arrival="1767.00" arrivalLane="G_0" arrivalPos="1742.80" arrivalSpeed="13.61" duration="1586.00" routeLength="19231.64" waitingTime="0.00" waitingCount="0" stopTime="0.00" timeLoss="224.67" rerouteNo="2" devices="tripinfo_veh43 routing_veh43 emissions_veh43" vType="truck" speedFactor="1.02" vaporized="">
        <emissions CO_abs="25254.051344" CO2_abs="22631281.506298" HC_abs="642.073910" PMx_abs="494.452009" NOx_abs="141960.587509" fuel_abs="8515.377663" electricity_abs="0"/>
    </tripinfo>
    <tripinfo id="veh29" depart="124.00" departLane="-B_0" departPos="5.10" departSpeed="0.00" departDelay="0.00" arrival="1768.00" arrivalLane="D_0" arrivalPos="1742.80" arrivalSpeed="12.82" duration="1644.00" routeLength="19233.74" waitingTime="3.00" waitingCount="1" stopTime="0.00" timeLoss="153.99" rerouteNo="3" devices="tripinfo_veh29 routing_veh29 emissions_veh29" vType="eVehicle" speedFactor="0.93" vaporized="">
        <emissions CO_abs="0" CO2_abs="0" HC_abs="0" PMx_abs="0" NOx_abs="0" fuel_abs="0" electricity_abs="0"/>
    </tripinfo>
    <tripinfo id="veh58" depart="229.00" departLane="-E_0" departPos="5.10" departSpeed="0.00" departDelay="0.00" arrival="1769.00" arrivalLane="G_0" arrivalPos="1742.80" arrivalSpeed="13.14" duration="1540.00" routeLength="19233.74" waitingTime="0.00" waitingCount="0" stopTime="0.00" timeLoss="184.40" rerouteNo="2" devices="tripinfo_veh58 routing_veh58 emissions_veh58" vType="gasolineEuroSix" speedFactor="1.02" vaporized="">
        <emissions CO_abs="78155.791630" CO2_abs="3524672.785256" HC_abs="394.070040" PMx_abs="139.116829" NOx_abs="795.590346" fuel_abs="1515.261074" electricity_abs="0"/>
    </tripinfo>
    <tripinfo id="veh30" depart="134.00" departLane="-B_0" departPos="5.10" departSpeed="0.00" departDelay="0.00" arrival="1770.00" arrivalLane="D_0" arrivalPos="1742.80" arrivalSpeed="15.49" duration="1636.00" routeLength="19233.74" waitingTime="2.00" waitingCount="1" stopTime="0.00" timeLoss="457.85" rerouteNo="3" devices="tripinfo_veh30 routing_veh30 emissions_veh30" vType="normalVehicle" speedFactor="1.18" vaporized="">
        <emissions CO_abs="48134.705578" CO2_abs="4021179.527969" HC_abs="313.257195" PMx_abs="65.672366" NOx_abs="1597.702942" fuel_abs="1728.530760" electricity_abs="0"/>
    </tripinfo>
    <tripinfo id="veh33" depart="150.00" departLane="-B_0" departPos="5.10" departSpeed="0.00" departDelay="0.00" arrival="1771.00" arrivalLane="D_0" arrivalPos="1742.80" arrivalSpeed="15.91" duration="1621.00" routeLength="19233.74" waitingTime="1.00" waitingCount="1" stopTime="0.00" timeLoss="436.98" rerouteNo="3" devices="tripinfo_veh33 routing_veh33 emissions_veh33" vType="gasolineEuroSix" speedFactor="1.17" vaporized="">
        <emissions CO_abs="113197.197482" CO2_abs="4285617.650976" HC_abs="548.298001" PMx_abs="192.725078" NOx_abs="947.438588" fuel_abs="1842.406410" electricity_abs="0"/>
    </tripinfo>
    <tripinfo id="veh44" depart="182.00" departLane="-B_0" departPos="5.10" departSpeed="0.00" departDelay="0.00" arrival="1773.00" arrivalLane="D_0" arrivalPos="1742.80" arrivalSpeed="13.30" duration="1591.00" routeLength="19233.74" waitingTime="0.00" waitingCount="0" stopTime="0.00" timeLoss="261.28" rerouteNo="3" devices="tripinfo_veh44 routing_veh44 emissions_veh44" vType="eVehicle" speedFactor="1.04" vaporized="">
        <emissions CO_abs="0" CO2_abs="0" HC_abs="0" PMx_abs="0" NOx_abs="0" fuel_abs="0" electricity_abs="0"/>
    </tripinfo>
    <tripinfo id="veh53" depart="209.00" departLane="-B_0" departPos="5.10" departSpeed="0.00" departDelay="0.00" arrival="1775.00" arrivalLane="D_0" arrivalPos="1742.80" arrivalSpeed="14.40" duration="1566.00" routeLength="19233.74" waitingTime="0.00" waitingCount="0" stopTime="0.00" timeLoss="298.82" rerouteNo="3" devices="tripinfo_veh53 routing_veh53 emissions_veh53" vType="normalVehicle" speedFactor="1.10" vaporized="">
        <emissions CO_abs="51581.424227" CO2_abs="4223277.834645" HC_abs="333.889127" PMx_abs="72.329697" NOx_abs="1695.948556" fuel_abs="1815.400113" electricity_abs="0"/>
    </tripinfo>
    <tripinfo id="veh78" depart="295.00" departLane="-B_0" departPos="5.10" departSpeed="0.00" departDelay="0.00" arrival="1791.00" arrivalLane="D_0" arrivalPos="1742.80" arrivalSpeed="13.71" duration="1496.00" routeLength="19233.74" waitingTime="0.00" waitingCount="0" stopTime="0.00" timeLoss="117.64" rerouteNo="3" devices="tripinfo_veh78 routing_veh78 emissions_veh78" vType="authority@veh78" speedFactor="1.01" vaporized="">
        <emissions CO_abs="333.754281" CO2_abs="3192362.115035" HC_abs="108.113283" PMx_abs="0" NOx_abs="5611.073665" fuel_abs="1201.144657" electricity_abs="0"/>
    </tripinfo>
    <tripinfo id="veh39" depart="162.00" departLane="-H_0" departPos="5.10" departSpeed="0.00" departDelay="3.00" arrival="1797.00" arrivalLane="F_0" arrivalPos="1742.80" arrivalSpeed="12.21" duration="1635.00" routeLength="19233.74" waitingTime="0.00" waitingCount="0" stopTime="0.00" timeLoss="94.12" rerouteNo="2" devices="tripinfo_veh39 routing_veh39 emissions_veh39" vType="hovGasolinaEuroSix" speedFactor="0.90" vaporized="">
        <emissions CO_abs="416.078217" CO2_abs="2199697.863148" HC_abs="107.459054" PMx_abs="38.416353" NOx_abs="3436.026601" fuel_abs="827.567744" electricity_abs="0"/>
    </tripinfo>
    <tripinfo id="veh25" depart="108.00" departLane="-G_0" departPos="5.10" departSpeed="0.00" departDelay="0.00" arrival="1798.00" arrivalLane="E_0" arrivalPos="1742.80" arrivalSpeed="11.12" duration="1690.00" routeLength="19233.74" waitingTime="0.00" waitingCount="0" stopTime="0.00" timeLoss="99.57" rerouteNo="2" devices="tripinfo_veh25 routing_veh25 emissions_veh25" vType="eVehicle" speedFactor="0.87" vaporized="">
        <emissions CO_abs="0" CO2_abs="0" HC_abs="0" PMx_abs="0" NOx_abs="0" fuel_abs="0" electricity_abs="0"/>
    </tripinfo>
    <tripinfo id="veh26" depart="112.00" departLane="-G_0" departPos="7.20" departSpeed="0.00" departDelay="4.00" arrival="1800.00" arrivalLane="E_0" arrivalPos="1742.80" arrivalSpeed="13.29" duration="1688.00" routeLength="19231.64" waitingTime="0.00" waitingCount="0" stopTime="0.00" timeLoss="240.28" rerouteNo="2" devices="tripinfo_veh26 routing_veh26 emissions_veh26" vType="truck" speedFactor="0.96" vaporized="">
        <emissions CO_abs="23196.888002" CO2_abs="20352101.803032" HC_abs="586.805374" PMx_abs="457.785705" NOx_abs="128670.325031" fuel_abs="7657.703955" electricity_abs="0"/>
    </tripinfo>
    <tripinfo id="veh5" depart="19.00" departLane="-D_0" departPos="5.10" departSpeed="0.00" departDelay="0.00" arrival="1802.00" arrivalLane="B_0" arrivalPos="1742.80" arrivalSpeed="10.73" duration="1783.00" routeLength="19233.74" waitingTime="0.00" waitingCount="0" stopTime="0.00" timeLoss="113.15" rerouteNo="2" devices="tripinfo_veh5 routing_veh5 emissions_veh5" vType="eVehicle" speedFactor="0.83" vaporized="">
        <emissions CO_abs="0" CO2_abs="0" HC_abs="0" PMx_abs="0" NOx_abs="0" fuel_abs="0" electricity_abs="0"/>
    </tripinfo>
    <tripinfo id="veh28" depart="117.00" departLane="-G_0" departPos="5.10" departSpeed="0.00" departDelay="0.00" arrival="1802.00" arrivalLane="E_0" arrivalPos="1742.80" arrivalSpeed="15.67" duration="1685.00" routeLength="19233.74" waitingTime="0.00" waitingCount="0" stopTime="0.00" timeLoss="458.33" rerouteNo="2" devices="tripinfo_veh28 routing_veh28 emissions_veh28" vType="normalVehicle" speedFactor="1.13" vaporized="">
        <emissions CO_abs="43760.974824" CO2_abs="3742539.030049" HC_abs="286.305024" PMx_abs="58.202450" NOx_abs="1470.116682" fuel_abs="1608.758662" electricity_abs="0"/>
    </tripinfo>
    <tripinfo id="veh31" depart="135.00" departLane="-G_0" departPos="5.10" departSpeed="0.00" departDelay="0.00" arrival="1803.00" arrivalLane="E_0" arrivalPos="1742.80" arrivalSpeed="15.92" duration="1668.00" routeLength="19233.74" waitingTime="0.00" waitingCount="0" stopTime="0.00" timeLoss="465.98" rerouteNo="2" devices="tripinfo_veh31 routing_veh31 emissions_veh31" vType="authority@veh31" speedFactor="1.15" vaporized="">
        <emissions CO_abs="85608.755639" CO2_abs="4286468.483924" HC_abs="761.775726" PMx_abs="146.464144" NOx_abs="1357.767801" fuel_abs="1842.550591" electricity_abs="0"/>
    </tripinfo>