<?xml version="1.0" encoding="UTF-8"?>

<!-- generated on 02/12/21 16:30:19 by Eclipse SUMO GUI Version 1.7.0
<configuration xmlns:xsi="http://www.w3.org/2001/XMLSchema-instance" xsi:noNamespaceSchemaLocation="http://sumo.dlr.de/xsd/sumoConfiguration.xsd">

    <input>
        <net-file value="casebase.net.xml"/>
        <route-files value="casebase.rou.xml"/>
        <additional-files value="casebase.add.xml"/>
    </input>

    <output>
        <emission-output value="emissionOutput.xml"/>
        <tripinfo-output value="tripinfo.xml"/>
    </output>

    <processing>
        <ignore-route-errors value="true"/>
    </processing>

    <traci_server>
        <remote-port value="59444"/>
    </traci_server>

</configuration>
-->

<tripinfos xmlns:xsi="http://www.w3.org/2001/XMLSchema-instance" xsi:noNamespaceSchemaLocation="http://sumo.dlr.de/xsd/tripinfo_file.xsd">
    <tripinfo id="veh19" depart="84.00" departLane="-A_0" departPos="5.10" departSpeed="0.00" departDelay="0.00" arrival="1127.00" arrivalLane="C_0" arrivalPos="1742.80" arrivalSpeed="15.27" duration="1043.00" routeLength="15744.90" waitingTime="0.00" waitingCount="0" stopTime="0.00" timeLoss="63.97" rerouteNo="1" devices="tripinfo_veh19 routing_veh19 emissions_veh19" vType="authority@veh19" speedFactor="1.16" vaporized="">
        <emissions CO_abs="0" CO2_abs="0" HC_abs="0" PMx_abs="0" NOx_abs="0" fuel_abs="0" electricity_abs="0"/>
    </tripinfo>
    <tripinfo id="veh0" depart="1.00" departLane="-D_0" departPos="5.10" departSpeed="0.00" departDelay="0.00" arrival="1138.00" arrivalLane="B_0" arrivalPos="1742.80" arrivalSpeed="14.44" duration="1137.00" routeLength="15744.90" waitingTime="0.00" waitingCount="0" stopTime="0.00" timeLoss="66.78" rerouteNo="1" devices="tripinfo_veh0 routing_veh0 emissions_veh0" vType="authority@veh0" speedFactor="1.06" vaporized="">
        <emissions CO_abs="48166.532890" CO2_abs="2473146.814763" HC_abs="254.068645" PMx_abs="91.514592" NOx_abs="558.553857" fuel_abs="1063.202417" electricity_abs="0"/>
    </tripinfo>
    <tripinfo id="veh4" depart="15.00" departLane="-E_0" departPos="5.10" departSpeed="0.00" departDelay="0.00" arrival="1172.00" arrivalLane="G_0" arrivalPos="1742.80" arrivalSpeed="14.19" duration="1157.00" routeLength="15744.90" waitingTime="0.00" waitingCount="0" stopTime="0.00" timeLoss="56.41" rerouteNo="1" devices="tripinfo_veh4 routing_veh4 emissions_veh4" vType="authority@veh4" speedFactor="1.03" vaporized="">
        <emissions CO_abs="0" CO2_abs="0" HC_abs="0" PMx_abs="0" NOx_abs="0" fuel_abs="0" electricity_abs="0"/>
    </tripinfo>
    <tripinfo id="veh6" depart="22.00" departLane="-B_0" departPos="5.10" departSpeed="0.00" departDelay="0.00" arrival="1177.00" arrivalLane="D_0" arrivalPos="1742.80" arrivalSpeed="13.45" duration="1155.00" routeLength="15744.90" waitingTime="0.00" waitingCount="0" stopTime="0.00" timeLoss="70.96" rerouteNo="1" devices="tripinfo_veh6 routing_veh6 emissions_veh6" vType="authority@veh6" speedFactor="1.05" vaporized="">
        <emissions CO_abs="38447.392539" CO2_abs="2568580.882479" HC_abs="404.319139" PMx_abs="73.070438" NOx_abs="742.638216" fuel_abs="1104.094301" electricity_abs="0"/>
    </tripinfo>
    <tripinfo id="veh51" depart="202.00" departLane="-A_0" departPos="5.10" departSpeed="0.00" departDelay="0.00" arrival="1244.00" arrivalLane="C_0" arrivalPos="1742.80" arrivalSpeed="15.40" duration="1042.00" routeLength="15744.90" waitingTime="4.00" waitingCount="1" stopTime="0.00" timeLoss="71.67" rerouteNo="1" devices="tripinfo_veh51 routing_veh51 emissions_veh51" vType="authority@veh51" speedFactor="1.17" vaporized="">
        <emissions CO_abs="52049.480969" CO2_abs="2560533.155758" HC_abs="273.958688" PMx_abs="99.621814" NOx_abs="569.055271" fuel_abs="1100.768518" electricity_abs="0"/>
    </tripinfo>
    <tripinfo id="veh1" depart="4.00" departLane="-D_0" departPos="5.10" departSpeed="0.00" departDelay="3.00" arrival="1302.00" arrivalLane="B_0" arrivalPos="1742.80" arrivalSpeed="12.85" duration="1298.00" routeLength="15744.90" waitingTime="7.00" waitingCount="1" stopTime="0.00" timeLoss="89.47" rerouteNo="3" devices="tripinfo_veh1 routing_veh1 emissions_veh1" vType="authority@veh1" speedFactor="0.94" vaporized="">
        <emissions CO_abs="40943.019033" CO2_abs="2595056.881355" HC_abs="402.789000" PMx_abs="74.213328" NOx_abs="790.937725" fuel_abs="1115.462782" electricity_abs="0"/>
    </tripinfo>
    <tripinfo id="veh2" depart="7.00" departLane="-D_0" departPos="5.10" departSpeed="0.00" departDelay="5.00" arrival="1304.00" arrivalLane="B_0" arrivalPos="1742.80" arrivalSpeed="12.98" duration="1297.00" routeLength="15744.90" waitingTime="7.00" waitingCount="1" stopTime="0.00" timeLoss="174.43" rerouteNo="3" devices="tripinfo_veh2 routing_veh2 emissions_veh2" vType="authority@veh2" speedFactor="1.01" vaporized="">
        <emissions CO_abs="345.710901" CO2_abs="2173209.098856" HC_abs="97.591346" PMx_abs="40.804877" NOx_abs="3582.995635" fuel_abs="817.637315" electricity_abs="0"/>
    </tripinfo>
    <tripinfo id="veh3" depart="10.00" departLane="-D_0" departPos="5.10" departSpeed="0.00" departDelay="8.00" arrival="1305.00" arrivalLane="B_0" arrivalPos="1742.80" arrivalSpeed="14.23" duration="1295.00" routeLength="15744.90" waitingTime="6.00" waitingCount="1" stopTime="0.00" timeLoss="247.87" rerouteNo="3" devices="tripinfo_veh3 routing_veh3 emissions_veh3" vType="authority@veh3" speedFactor="1.08" vaporized="">
        <emissions CO_abs="67186.672795" CO2_abs="3425150.477203" HC_abs="609.520444" PMx_abs="116.484913" NOx_abs="1066.346061" fuel_abs="1472.315134" electricity_abs="0"/>
    </tripinfo>
    <tripinfo id="veh61" depart="238.00" departLane="-A_0" departPos="5.10" departSpeed="0.00" departDelay="0.00" arrival="1313.00" arrivalLane="C_0" arrivalPos="1742.80" arrivalSpeed="15.34" duration="1075.00" routeLength="15744.90" waitingTime="0.00" waitingCount="0" stopTime="0.00" timeLoss="62.20" rerouteNo="1" devices="tripinfo_veh61 routing_veh61 emissions_veh61" vType="authority@veh61" speedFactor="1.12" vaporized="">
        <emissions CO_abs="227.286264" CO2_abs="2386738.249745" HC_abs="82.694119" PMx_abs="0" NOx_abs="4189.309725" fuel_abs="898.024834" electricity_abs="0"/>
    </tripinfo>
    <tripinfo id="veh22" depart="91.00" departLane="-H_0" departPos="5.10" departSpeed="0.00" departDelay="0.00" arrival="1314.00" arrivalLane="F_0" arrivalPos="1742.80" arrivalSpeed="13.05" duration="1223.00" routeLength="15744.90" waitingTime="0.00" waitingCount="0" stopTime="0.00" timeLoss="60.04" rerouteNo="1" devices="tripinfo_veh22 routing_veh22 emissions_veh22" vType="authority@veh22" speedFactor="0.98" vaporized="">
        <emissions CO_abs="17834.110206" CO2_abs="2311550.063510" HC_abs="134.350138" PMx_abs="30.721543" NOx_abs="858.432052" fuel_abs="993.638990" electricity_abs="0"/>
    </tripinfo>
    <tripinfo id="veh8" depart="32.00" departLane="-B_0" departPos="5.10" departSpeed="0.00" departDelay="0.00" arrival="1322.00" arrivalLane="D_0" arrivalPos="1742.80" arrivalSpeed="12.49" duration="1290.00" routeLength="15744.90" waitingTime="0.00" waitingCount="0" stopTime="0.00" timeLoss="80.72" rerouteNo="1" devices="tripinfo_veh8 routing_veh8 emissions_veh8" vType="authority@veh8" speedFactor="0.94" vaporized="">
        <emissions CO_abs="23395.297847" CO2_abs="2511538.537482" HC_abs="164.479044" PMx_abs="34.982024" NOx_abs="950.673797" fuel_abs="1079.605918" electricity_abs="0"/>
    </tripinfo>
    <tripinfo id="veh14" depart="71.00" departLane="-B_0" departPos="5.10" departSpeed="0.00" departDelay="0.00" arrival="1324.00" arrivalLane="D_0" arrivalPos="1742.80" arrivalSpeed="13.64" duration="1253.00" routeLength="15744.90" waitingTime="0.00" waitingCount="0" stopTime="0.00" timeLoss="108.37" rerouteNo="1" devices="tripinfo_veh14 routing_veh14 emissions_veh14" vType="authority@veh14" speedFactor="0.99" vaporized="">
        <emissions CO_abs="268.908502" CO2_abs="2567191.084623" HC_abs="86.033926" PMx_abs="0" NOx_abs="4543.431901" fuel_abs="965.922615" electricity_abs="0"/>
    </tripinfo>
    <tripinfo id="veh32" depart="147.00" departLane="-C_0" departPos="5.10" departSpeed="0.00" departDelay="0.00" arrival="1347.00" arrivalLane="A_0" arrivalPos="1742.80" arrivalSpeed="13.91" duration="1200.00" routeLength="15744.90" waitingTime="0.00" waitingCount="0" stopTime="0.00" timeLoss="71.65" rerouteNo="1" devices="tripinfo_veh32 routing_veh32 emissions_veh32" vType="authority@veh32" speedFactor="1.01" vaporized="">
        <emissions CO_abs="49204.065165" CO2_abs="2531527.118144" HC_abs="257.862200" PMx_abs="92.018881" NOx_abs="576.265511" fuel_abs="1088.301075" electricity_abs="0"/>
    </tripinfo>
    <tripinfo id="veh15" depart="73.00" departLane="-F_0" departPos="5.10" departSpeed="0.00" departDelay="0.00" arrival="1363.00" arrivalLane="H_0" arrivalPos="1742.80" arrivalSpeed="12.23" duration="1290.00" routeLength="15744.90" waitingTime="0.00" waitingCount="0" stopTime="0.00" timeLoss="66.10" rerouteNo="1" devices="tripinfo_veh15 routing_veh15 emissions_veh15" vType="authority@veh15" speedFactor="0.93" vaporized="">
        <emissions CO_abs="266.658090" CO2_abs="2248491.214042" HC_abs="78.836861" PMx_abs="0" NOx_abs="3750.974210" fuel_abs="845.993351" electricity_abs="0"/>
    </tripinfo>
    <tripinfo id="veh37" depart="156.00" departLane="-F_0" departPos="7.20" departSpeed="0.00" departDelay="0.00" arrival="1364.00" arrivalLane="H_0" arrivalPos="1742.80" arrivalSpeed="14.25" duration="1208.00" routeLength="15742.80" waitingTime="0.00" waitingCount="0" stopTime="0.00" timeLoss="167.78" rerouteNo="1" devices="tripinfo_veh37 routing_veh37 emissions_veh37" vType="authority@veh37" speedFactor="1.09" vaporized="">
        <emissions CO_abs="17327.717043" CO2_abs="15677080.909606" HC_abs="442.136291" PMx_abs="335.807948" NOx_abs="97971.587550" fuel_abs="5898.721737" electricity_abs="0"/>
    </tripinfo>
    <tripinfo id="veh7" depart="25.00" departLane="-G_0" departPos="5.10" departSpeed="0.00" departDelay="0.00" arrival="1380.00" arrivalLane="E_0" arrivalPos="1742.80" arrivalSpeed="11.84" duration="1355.00" routeLength="15744.90" waitingTime="0.00" waitingCount="0" stopTime="0.00" timeLoss="75.01" rerouteNo="1" devices="tripinfo_veh7 routing_veh7 emissions_veh7" vType="authority@veh7" speedFactor="0.89" vaporized="">
        <emissions CO_abs="36578.431641" CO2_abs="2442056.611205" HC_abs="361.617664" PMx_abs="66.199504" NOx_abs="753.194270" fuel_abs="1049.684031" electricity_abs="0"/>
    </tripinfo>
    <tripinfo id="veh12" depart="61.00" departLane="-G_0" departPos="5.10" departSpeed="0.00" departDelay="0.00" arrival="1381.00" arrivalLane="E_0" arrivalPos="1742.80" arrivalSpeed="14.42" duration="1320.00" routeLength="15744.90" waitingTime="0.00" waitingCount="0" stopTime="0.00" timeLoss="237.40" rerouteNo="1" devices="tripinfo_veh12 routing_veh12 emissions_veh12" vType="authority@veh12" speedFactor="1.05" vaporized="">
        <emissions CO_abs="350.976880" CO2_abs="2114031.099978" HC_abs="96.433752" PMx_abs="39.449571" NOx_abs="3452.300020" fuel_abs="795.366125" electricity_abs="0"/>
    </tripinfo>
    <tripinfo id="veh13" depart="64.00" departLane="-G_0" departPos="5.10" departSpeed="0.00" departDelay="3.00" arrival="1383.00" arrivalLane="E_0" arrivalPos="1742.80" arrivalSpeed="14.87" duration="1319.00" routeLength="15744.90" waitingTime="0.00" waitingCount="0" stopTime="0.00" timeLoss="309.18" rerouteNo="1" devices="tripinfo_veh13 routing_veh13 emissions_veh13" vType="authority@veh13" speedFactor="1.12" vaporized="">
        <emissions CO_abs="66509.088803" CO2_abs="3419020.940119" HC_abs="603.579979" PMx_abs="115.171443" NOx_abs="1067.098193" fuel_abs="1469.676427" electricity_abs="0"/>
    </tripinfo>
    <tripinfo id="veh46" depart="190.00" departLane="-C_0" departPos="5.10" departSpeed="0.00" departDelay="0.00" arrival="1397.00" arrivalLane="A_0" arrivalPos="1742.80" arrivalSpeed="13.15" duration="1207.00" routeLength="15744.90" waitingTime="0.00" waitingCount="0" stopTime="0.00" timeLoss="70.36" rerouteNo="1" devices="tripinfo_veh46 routing_veh46 emissions_veh46" vType="authority@veh46" speedFactor="1.00" vaporized="">
        <emissions CO_abs="47174.604455" CO2_abs="2501673.113229" HC_abs="248.903045" PMx_abs="88.704972" NOx_abs="572.006250" fuel_abs="1075.465884" electricity_abs="0"/>
    </tripinfo>
    <tripinfo id="veh9" depart="35.00" departLane="-E_0" departPos="5.10" departSpeed="0.00" departDelay="0.00" arrival="1437.00" arrivalLane="G_0" arrivalPos="1742.80" arrivalSpeed="11.69" duration="1402.00" routeLength="15744.90" waitingTime="0.00" waitingCount="0" stopTime="0.00" timeLoss="78.34" rerouteNo="1" devices="tripinfo_veh9 routing_veh9 emissions_veh9" vType="authority@veh9" speedFactor="0.86" vaporized="">
        <emissions CO_abs="24476.149104" CO2_abs="2436506.539581" HC_abs="167.067539" PMx_abs="31.534404" NOx_abs="912.451036" fuel_abs="1047.357384" electricity_abs="0"/>
    </tripinfo>
    <tripinfo id="veh10" depart="47.00" departLane="-E_0" departPos="5.10" departSpeed="0.00" departDelay="0.00" arrival="1438.00" arrivalLane="G_0" arrivalPos="1742.80" arrivalSpeed="11.90" duration="1391.00" routeLength="15744.90" waitingTime="0.00" waitingCount="0" stopTime="0.00" timeLoss="351.65" rerouteNo="1" devices="tripinfo_veh10 routing_veh10 emissions_veh10" vType="authority@veh10" speedFactor="1.09" vaporized="">
        <emissions CO_abs="35295.711126" CO2_abs="2979072.621820" HC_abs="229.949867" PMx_abs="46.343827" NOx_abs="1171.160460" fuel_abs="1280.577141" electricity_abs="0"/>
    </tripinfo>
    <tripinfo id="veh18" depart="82.00" departLane="-E_0" departPos="5.10" departSpeed="0.00" departDelay="0.00" arrival="1440.00" arrivalLane="G_0" arrivalPos="1742.80" arrivalSpeed="12.64" duration="1358.00" routeLength="15744.90" waitingTime="0.00" waitingCount="0" stopTime="0.00" timeLoss="146.87" rerouteNo="1" devices="tripinfo_veh18 routing_veh18 emissions_veh18" vType="authority@veh18" speedFactor="0.94" vaporized="">
        <emissions CO_abs="34589.766245" CO2_abs="3016685.741105" HC_abs="227.722356" PMx_abs="47.019134" NOx_abs="1184.459272" fuel_abs="1296.744526" electricity_abs="0"/>
    </tripinfo>
    <tripinfo id="veh23" depart="94.00" departLane="-H_0" departPos="5.10" departSpeed="0.00" departDelay="2.00" arrival="1441.00" arrivalLane="F_0" arrivalPos="1742.80" arrivalSpeed="11.78" duration="1347.00" routeLength="15744.90" waitingTime="0.00" waitingCount="0" stopTime="0.00" timeLoss="72.55" rerouteNo="1" devices="tripinfo_veh23 routing_veh23 emissions_veh23" vType="authority@veh23" speedFactor="0.89" vaporized="">
        <emissions CO_abs="0" CO2_abs="0" HC_abs="0" PMx_abs="0" NOx_abs="0" fuel_abs="0" electricity_abs="0"/>
    </tripinfo>
    <tripinfo id="veh20" depart="85.00" departLane="-E_0" departPos="5.10" departSpeed="0.00" departDelay="0.00" arrival="1442.00" arrivalLane="G_0" arrivalPos="1742.80" arrivalSpeed="14.01" duration="1357.00" routeLength="15744.90" waitingTime="0.00" waitingCount="0" stopTime="0.00" timeLoss="242.97" rerouteNo="1" devices="tripinfo_veh20 routing_veh20 emissions_veh20" vType="authority@veh20" speedFactor="1.02" vaporized="">
        <emissions CO_abs="85822.290175" CO2_abs="3413167.420355" HC_abs="418.922432" PMx_abs="146.865975" NOx_abs="762.289899" fuel_abs="1467.333915" electricity_abs="0"/>
    </tripinfo>
    <tripinfo id="veh38" depart="159.00" departLane="-H_0" departPos="5.10" departSpeed="0.00" departDelay="0.00" arrival="1443.00" arrivalLane="F_0" arrivalPos="1742.80" arrivalSpeed="14.14" duration="1284.00" routeLength="15744.90" waitingTime="0.00" waitingCount="0" stopTime="0.00" timeLoss="254.97" rerouteNo="1" devices="tripinfo_veh38 routing_veh38 emissions_veh38" vType="authority@veh38" speedFactor="1.10" vaporized="">
        <emissions CO_abs="0" CO2_abs="0" HC_abs="0" PMx_abs="0" NOx_abs="0" fuel_abs="0" electricity_abs="0"/>
    </tripinfo>
    <tripinfo id="veh47" depart="192.00" departLane="-F_0" departPos="7.20" departSpeed="0.00" departDelay="0.00" arrival="1443.00" arrivalLane="H_0" arrivalPos="1742.80" arrivalSpeed="12.46" duration="1251.00" routeLength="15742.80" waitingTime="0.00" waitingCount="0" stopTime="0.00" timeLoss="58.24" rerouteNo="1" devices="tripinfo_veh47 routing_veh47 emissions_veh47" vType="authority@veh47" speedFactor="0.95" vaporized="">
        <emissions CO_abs="16059.025955" CO2_abs="14078550.355827" HC_abs="407.327988" PMx_abs="312.505405" NOx_abs="88987.186979" fuel_abs="5297.084524" electricity_abs="0"/>
    </tripinfo>
    <tripinfo id="veh21" depart="88.00" departLane="-E_0" departPos="5.10" departSpeed="0.00" departDelay="3.00" arrival="1444.00" arrivalLane="G_0" arrivalPos="1742.80" arrivalSpeed="13.45" duration="1356.00" routeLength="15744.90" waitingTime="0.00" waitingCount="0" stopTime="0.00" timeLoss="233.02" rerouteNo="1" devices="tripinfo_veh21 routing_veh21 emissions_veh21" vType="authority@veh21" speedFactor="1.01" vaporized="">
        <emissions CO_abs="44292.914324" CO2_abs="3500733.937004" HC_abs="283.997417" PMx_abs="59.943192" NOx_abs="1413.755606" fuel_abs="1504.811062" electricity_abs="0"/>
    </tripinfo>
    <tripinfo id="veh57" depart="227.00" departLane="-F_0" departPos="5.10" departSpeed="0.00" departDelay="0.00" arrival="1445.00" arrivalLane="H_0" arrivalPos="1742.80" arrivalSpeed="15.18" duration="1218.00" routeLength="15744.90" waitingTime="0.00" waitingCount="0" stopTime="0.00" timeLoss="225.34" rerouteNo="1" devices="tripinfo_veh57 routing_veh57 emissions_veh57" vType="authority@veh57" speedFactor="1.14" vaporized="">
        <emissions CO_abs="318.654597" CO2_abs="2021726.215254" HC_abs="93.225158" PMx_abs="34.236685" NOx_abs="3246.302977" fuel_abs="760.636252" electricity_abs="0"/>
    </tripinfo>
    <tripinfo id="veh27" depart="111.00" departLane="-E_0" departPos="7.20" departSpeed="0.00" departDelay="0.00" arrival="1446.00" arrivalLane="G_0" arrivalPos="1742.80" arrivalSpeed="12.43" duration="1335.00" routeLength="15742.80" waitingTime="0.00" waitingCount="0" stopTime="0.00" timeLoss="170.95" rerouteNo="1" devices="tripinfo_veh27 routing_veh27 emissions_veh27" vType="authority@veh27" speedFactor="0.97" vaporized="">
        <emissions CO_abs="23485.886068" CO2_abs="21650993.808264" HC_abs="599.662438" PMx_abs="460.913820" NOx_abs="134478.336189" fuel_abs="8146.829492" electricity_abs="0"/>
    </tripinfo>
    <tripinfo id="veh40" depart="163.00" departLane="-E_0" departPos="5.10" departSpeed="0.00" departDelay="0.00" arrival="1447.00" arrivalLane="G_0" arrivalPos="1742.80" arrivalSpeed="13.15" duration="1284.00" routeLength="15744.90" waitingTime="0.00" waitingCount="0" stopTime="0.00" timeLoss="183.65" rerouteNo="1" devices="tripinfo_veh40 routing_veh40 emissions_veh40" vType="authority@veh40" speedFactor="1.03" vaporized="">
        <emissions CO_abs="350.537076" CO2_abs="2325886.752557" HC_abs="101.698962" PMx_abs="44.594782" NOx_abs="3891.751305" fuel_abs="875.091183" electricity_abs="0"/>
    </tripinfo>
    <tripinfo id="veh42" depart="174.00" departLane="-E_0" departPos="5.10" departSpeed="0.00" departDelay="0.00" arrival="1449.00" arrivalLane="G_0" arrivalPos="1742.80" arrivalSpeed="14.81" duration="1275.00" routeLength="15744.90" waitingTime="0.00" waitingCount="0" stopTime="0.00" timeLoss="236.28" rerouteNo="1" devices="tripinfo_veh42 routing_veh42 emissions_veh42" vType="authority@veh42" speedFactor="1.09" vaporized="">
        <emissions CO_abs="40053.056048" CO2_abs="3403794.854142" HC_abs="262.140258" PMx_abs="57.423225" NOx_abs="1361.399764" fuel_abs="1463.140701" electricity_abs="0"/>
    </tripinfo>
    <tripinfo id="veh43" depart="181.00" departLane="-E_0" departPos="7.20" departSpeed="0.00" departDelay="0.00" arrival="1451.00" arrivalLane="G_0" arrivalPos="1742.80" arrivalSpeed="13.98" duration="1270.00" routeLength="15742.80" waitingTime="0.00" waitingCount="0" stopTime="0.00" timeLoss="156.77" rerouteNo="1" devices="tripinfo_veh43 routing_veh43 emissions_veh43" vType="authority@veh43" speedFactor="1.02" vaporized="">
        <emissions CO_abs="21915.281717" CO2_abs="20262011.112621" HC_abs="560.428934" PMx_abs="427.789374" NOx_abs="125699.933682" fuel_abs="7624.145976" electricity_abs="0"/>
    </tripinfo>
    <tripinfo id="veh58" depart="229.00" departLane="-E_0" departPos="5.10" departSpeed="0.00" departDelay="0.00" arrival="1452.00" arrivalLane="G_0" arrivalPos="1742.80" arrivalSpeed="14.15" duration="1223.00" routeLength="15744.90" waitingTime="0.00" waitingCount="0" stopTime="0.00" timeLoss="115.45" rerouteNo="1" devices="tripinfo_veh58 routing_veh58 emissions_veh58" vType="authority@veh58" speedFactor="1.02" vaporized="">
        <emissions CO_abs="62684.282811" CO2_abs="2857511.907961" HC_abs="318.229093" PMx_abs="113.127859" NOx_abs="642.652050" fuel_abs="1228.447327" electricity_abs="0"/>
    </tripinfo>
    <tripinfo id="veh63" depart="244.00" departLane="-F_0" departPos="5.10" departSpeed="0.00" departDelay="0.00" arrival="1453.00" arrivalLane="H_0" arrivalPos="1742.80" arrivalSpeed="12.59" duration="1209.00" routeLength="15744.90" waitingTime="0.00" waitingCount="0" stopTime="0.00" timeLoss="60.34" rerouteNo="1" devices="tripinfo_veh63 routing_veh63 emissions_veh63" vType="authority@veh63" speedFactor="0.99" vaporized="">
        <emissions CO_abs="304.642341" CO2_abs="1748019.704648" HC_abs="85.791234" PMx_abs="26.525993" NOx_abs="2678.952491" fuel_abs="657.639179" electricity_abs="0"/>
    </tripinfo>
    <tripinfo id="veh16" depart="79.00" departLane="-B_0" departPos="5.10" departSpeed="0.00" departDelay="0.00" arrival="1472.00" arrivalLane="D_0" arrivalPos="1742.80" arrivalSpeed="10.95" duration="1393.00" routeLength="15744.90" waitingTime="12.00" waitingCount="1" stopTime="0.00" timeLoss="101.91" rerouteNo="1" devices="tripinfo_veh16 routing_veh16 emissions_veh16" vType="authority@veh16" speedFactor="0.88" vaporized="">
        <emissions CO_abs="53327.460706" CO2_abs="2595565.530743" HC_abs="269.025462" PMx_abs="92.424249" NOx_abs="602.494924" fuel_abs="1115.834316" electricity_abs="0"/>
    </tripinfo>
    <tripinfo id="veh17" depart="82.00" departLane="-B_0" departPos="5.10" departSpeed="0.00" departDelay="3.00" arrival="1473.00" arrivalLane="D_0" arrivalPos="1742.80" arrivalSpeed="12.47" duration="1391.00" routeLength="15744.90" waitingTime="11.00" waitingCount="1" stopTime="0.00" timeLoss="186.76" rerouteNo="1" devices="tripinfo_veh17 routing_veh17 emissions_veh17" vType="authority@veh17" speedFactor="0.94" vaporized="">
        <emissions CO_abs="376.163817" CO2_abs="2213601.292811" HC_abs="99.810965" PMx_abs="44.539428" NOx_abs="3680.132148" fuel_abs="832.830254" electricity_abs="0"/>
    </tripinfo>
    <tripinfo id="veh29" depart="124.00" departLane="-B_0" departPos="5.10" departSpeed="0.00" departDelay="0.00" arrival="1475.00" arrivalLane="D_0" arrivalPos="1742.80" arrivalSpeed="12.16" duration="1351.00" routeLength="15744.90" waitingTime="10.00" waitingCount="1" stopTime="0.00" timeLoss="133.52" rerouteNo="1" devices="tripinfo_veh29 routing_veh29 emissions_veh29" vType="authority@veh29" speedFactor="0.93" vaporized="">
        <emissions CO_abs="0" CO2_abs="0" HC_abs="0" PMx_abs="0" NOx_abs="0" fuel_abs="0" electricity_abs="0"/>
    </tripinfo>
    <tripinfo id="veh30" depart="134.00" departLane="-B_0" departPos="5.10" departSpeed="0.00" departDelay="0.00" arrival="1477.00" arrivalLane="D_0" arrivalPos="1742.80" arrivalSpeed="15.12" duration="1343.00" routeLength="15744.90" waitingTime="10.00" waitingCount="1" stopTime="0.00" timeLoss="380.40" rerouteNo="1" devices="tripinfo_veh30 routing_veh30 emissions_veh30" vType="authority@veh30" speedFactor="1.18" vaporized="">
        <emissions CO_abs="38815.385638" CO2_abs="3239501.178388" HC_abs="252.501505" PMx_abs="52.706814" NOx_abs="1285.584169" fuel_abs="1392.521487" electricity_abs="0"/>
    </tripinfo>
    <tripinfo id="veh33" depart="150.00" departLane="-B_0" departPos="5.10" departSpeed="0.00" departDelay="0.00" arrival="1478.00" arrivalLane="D_0" arrivalPos="1742.80" arrivalSpeed="15.59" duration="1328.00" routeLength="15744.90" waitingTime="9.00" waitingCount="1" stopTime="0.00" timeLoss="360.39" rerouteNo="1" devices="tripinfo_veh33 routing_veh33 emissions_veh33" vType="authority@veh33" speedFactor="1.17" vaporized="">
        <emissions CO_abs="91010.802350" CO2_abs="3481777.773135" HC_abs="441.561538" PMx_abs="155.063942" NOx_abs="771.420908" fuel_abs="1496.831012" electricity_abs="0"/>
    </tripinfo>
    <tripinfo id="veh44" depart="182.00" departLane="-B_0" departPos="5.10" departSpeed="0.00" departDelay="0.00" arrival="1480.00" arrivalLane="D_0" arrivalPos="1742.80" arrivalSpeed="13.44" duration="1298.00" routeLength="15744.90" waitingTime="9.00" waitingCount="2" stopTime="0.00" timeLoss="211.16" rerouteNo="1" devices="tripinfo_veh44 routing_veh44 emissions_veh44" vType="authority@veh44" speedFactor="1.04" vaporized="">
        <emissions CO_abs="0" CO2_abs="0" HC_abs="0" PMx_abs="0" NOx_abs="0" fuel_abs="0" electricity_abs="0"/>
    </tripinfo>
    <tripinfo id="veh5" depart="19.00" departLane="-D_0" departPos="5.10" departSpeed="0.00" departDelay="0.00" arrival="1481.00" arrivalLane="B_0" arrivalPos="1742.80" arrivalSpeed="10.31" duration="1462.00" routeLength="15744.90" waitingTime="0.00" waitingCount="0" stopTime="0.00" timeLoss="97.47" rerouteNo="3" devices="tripinfo_veh5 routing_veh5 emissions_veh5" vType="authority@veh5" speedFactor="0.83" vaporized="">
        <emissions CO_abs="0" CO2_abs="0" HC_abs="0" PMx_abs="0" NOx_abs="0" fuel_abs="0" electricity_abs="0"/>
    </tripinfo>
    <tripinfo id="veh53" depart="209.00" departLane="-B_0" departPos="5.10" departSpeed="0.00" departDelay="0.00" arrival="1482.00" arrivalLane="D_0" arrivalPos="1742.80" arrivalSpeed="14.39" duration="1273.00" routeLength="15744.90" waitingTime="8.00" waitingCount="1" stopTime="0.00" timeLoss="237.73" rerouteNo="1" devices="tripinfo_veh53 routing_veh53 emissions_veh53" vType="authority@veh53" speedFactor="1.10" vaporized="">
        <emissions CO_abs="38832.256973" CO2_abs="3259509.330482" HC_abs="252.844583" PMx_abs="55.013171" NOx_abs="1300.675318" fuel_abs="1401.119370" electricity_abs="0"/>
    </tripinfo>
    <tripinfo id="veh11" depart="51.00" departLane="-D_0" departPos="5.10" departSpeed="0.00" departDelay="0.00" arrival="1483.00" arrivalLane="B_0" arrivalPos="1742.80" arrivalSpeed="13.46" duration="1432.00" routeLength="15744.90" waitingTime="0.00" waitingCount="0" stopTime="0.00" timeLoss="326.71" rerouteNo="3" devices="tripinfo_veh11 routing_veh11 emissions_veh11" vType="authority@veh11" speedFactor="1.03" vaporized="">
        <emissions CO_abs="0" CO2_abs="0" HC_abs="0" PMx_abs="0" NOx_abs="0" fuel_abs="0" electricity_abs="0"/>
    </tripinfo>
    <tripinfo id="veh25" depart="108.00" departLane="-G_0" departPos="5.10" departSpeed="0.00" departDelay="0.00" arrival="1484.00" arrivalLane="E_0" arrivalPos="1742.80" arrivalSpeed="11.56" duration="1376.00" routeLength="15744.90" waitingTime="0.00" waitingCount="0" stopTime="0.00" timeLoss="76.75" rerouteNo="1" devices="tripinfo_veh25 routing_veh25 emissions_veh25" vType="authority@veh25" speedFactor="0.87" vaporized="">
        <emissions CO_abs="0" CO2_abs="0" HC_abs="0" PMx_abs="0" NOx_abs="0" fuel_abs="0" electricity_abs="0"/>
    </tripinfo>
    <tripinfo id="veh26" depart="112.00" departLane="-G_0" departPos="7.20" departSpeed="0.00" departDelay="4.00" arrival="1486.00" arrivalLane="E_0" arrivalPos="1742.80" arrivalSpeed="12.97" duration="1374.00" routeLength="15742.80" waitingTime="0.00" waitingCount="0" stopTime="0.00" timeLoss="191.02" rerouteNo="1" devices="tripinfo_veh26 routing_veh26 emissions_veh26" vType="authority@veh26" speedFactor="0.96" vaporized="">
        <emissions CO_abs="20444.948139" CO2_abs="18294231.955704" HC_abs="519.001639" PMx_abs="402.910924" NOx_abs="114843.259858" fuel_abs="6883.553660" electricity_abs="0"/>
    </tripinfo>
    <tripinfo id="veh28" depart="117.00" departLane="-G_0" departPos="5.10" departSpeed="0.00" departDelay="0.00" arrival="1487.00" arrivalLane="E_0" arrivalPos="1742.80" arrivalSpeed="14.79" duration="1370.00" routeLength="15744.90" waitingTime="0.00" waitingCount="0" stopTime="0.00" timeLoss="368.43" rerouteNo="1" devices="tripinfo_veh28 routing_veh28 emissions_veh28" vType="authority@veh28" speedFactor="1.13" vaporized="">
        <emissions CO_abs="36889.465155" CO2_abs="3115060.346224" HC_abs="240.601485" PMx_abs="49.493782" NOx_abs="1231.029715" fuel_abs="1339.030942" electricity_abs="0"/>
    </tripinfo>
    <tripinfo id="veh31" depart="135.00" departLane="-G_0" departPos="5.10" departSpeed="0.00" departDelay="0.00" arrival="1489.00" arrivalLane="E_0" arrivalPos="1742.80" arrivalSpeed="14.91" duration="1354.00" routeLength="15744.90" waitingTime="0.00" waitingCount="0" stopTime="0.00" timeLoss="371.75" rerouteNo="1" devices="tripinfo_veh31 routing_veh31 emissions_veh31" vType="authority@veh31" speedFactor="1.15" vaporized="">
        <emissions CO_abs="71475.699629" CO2_abs="3561005.917115" HC_abs="636.732012" PMx_abs="122.383805" NOx_abs="1125.157107" fuel_abs="1530.711326" electricity_abs="0"/>
    </tripinfo>
    <tripinfo id="veh35" depart="153.00" departLane="-G_0" departPos="5.10" departSpeed="0.00" departDelay="0.00" arrival="1491.00" arrivalLane="E_0" arrivalPos="1742.80" arrivalSpeed="13.44" duration="1338.00" routeLength="15744.90" waitingTime="0.00" waitingCount="0" stopTime="0.00" timeLoss="225.89" rerouteNo="1" devices="tripinfo_veh35 routing_veh35 emissions_veh35" vType="authority@veh35" speedFactor="1.02" vaporized="">
        <emissions CO_abs="91061.280184" CO2_abs="3511669.091626" HC_abs="442.496006" PMx_abs="155.540465" NOx_abs="778.999627" fuel_abs="1509.682059" electricity_abs="0"/>
    </tripinfo>