<?xml version="1.0" encoding="UTF-8"?>

<!-- generated on 02/11/21 01:11:18 by Eclipse SUMO GUI Version 1.7.0
<configuration xmlns:xsi="http://www.w3.org/2001/XMLSchema-instance" xsi:noNamespaceSchemaLocation="http://sumo.dlr.de/xsd/sumoConfiguration.xsd">

    <input>
        <net-file value="casebase.net.xml"/>
        <route-files value="casebase.rou.xml"/>
        <additional-files value="casebase.add.xml"/>
    </input>

    <output>
        <emission-output value="emissionOutput.xml"/>
        <tripinfo-output value="tripinfo.xml"/>
    </output>

    <processing>
        <ignore-route-errors value="true"/>
    </processing>

    <traci_server>
        <remote-port value="59163"/>
    </traci_server>

</configuration>
-->

<tripinfos xmlns:xsi="http://www.w3.org/2001/XMLSchema-instance" xsi:noNamespaceSchemaLocation="http://sumo.dlr.de/xsd/tripinfo_file.xsd">
    <tripinfo id="veh19" depart="84.00" departLane="-A_0" departPos="5.10" departSpeed="0.00" departDelay="0.00" arrival="1130.00" arrivalLane="C_0" arrivalPos="1742.80" arrivalSpeed="15.91" duration="1046.00" routeLength="15744.90" waitingTime="0.00" waitingCount="0" stopTime="0.00" timeLoss="67.07" rerouteNo="1" devices="tripinfo_veh19 routing_veh19 emissions_veh19" vType="eVehicle" speedFactor="1.16" vaporized="">
        <emissions CO_abs="0" CO2_abs="0" HC_abs="0" PMx_abs="0" NOx_abs="0" fuel_abs="0" electricity_abs="0"/>
    </tripinfo>
    <tripinfo id="veh0" depart="1.00" departLane="-D_0" departPos="5.10" departSpeed="0.00" departDelay="0.00" arrival="1139.00" arrivalLane="B_0" arrivalPos="1742.80" arrivalSpeed="14.27" duration="1138.00" routeLength="15744.90" waitingTime="0.00" waitingCount="0" stopTime="0.00" timeLoss="68.18" rerouteNo="1" devices="tripinfo_veh0 routing_veh0 emissions_veh0" vType="authority@veh0" speedFactor="1.06" vaporized="">
        <emissions CO_abs="48234.297188" CO2_abs="2488880.323883" HC_abs="254.691066" PMx_abs="91.710167" NOx_abs="562.564204" fuel_abs="1069.966046" electricity_abs="0"/>
    </tripinfo>
    <tripinfo id="veh4" depart="15.00" departLane="-E_0" departPos="5.10" departSpeed="0.00" departDelay="0.00" arrival="1170.00" arrivalLane="G_0" arrivalPos="1742.80" arrivalSpeed="14.08" duration="1155.00" routeLength="15744.90" waitingTime="0.00" waitingCount="0" stopTime="0.00" timeLoss="54.60" rerouteNo="1" devices="tripinfo_veh4 routing_veh4 emissions_veh4" vType="eVehicle" speedFactor="1.03" vaporized="">
        <emissions CO_abs="0" CO2_abs="0" HC_abs="0" PMx_abs="0" NOx_abs="0" fuel_abs="0" electricity_abs="0"/>
    </tripinfo>
    <tripinfo id="veh6" depart="22.00" departLane="-B_0" departPos="5.10" departSpeed="0.00" departDelay="0.00" arrival="1176.00" arrivalLane="D_0" arrivalPos="1742.80" arrivalSpeed="14.50" duration="1154.00" routeLength="15744.90" waitingTime="0.00" waitingCount="0" stopTime="0.00" timeLoss="69.98" rerouteNo="1" devices="tripinfo_veh6 routing_veh6 emissions_veh6" vType="highEmissions" speedFactor="1.05" vaporized="">
        <emissions CO_abs="38264.487849" CO2_abs="2525123.040039" HC_abs="400.053166" PMx_abs="72.468843" NOx_abs="731.265084" fuel_abs="1085.415482" electricity_abs="0"/>
    </tripinfo>
    <tripinfo id="veh1" depart="4.00" departLane="-D_0" departPos="5.10" departSpeed="0.00" departDelay="3.00" arrival="1290.00" arrivalLane="B_0" arrivalPos="1742.80" arrivalSpeed="12.78" duration="1286.00" routeLength="15744.90" waitingTime="0.00" waitingCount="0" stopTime="0.00" timeLoss="77.53" rerouteNo="1" devices="tripinfo_veh1 routing_veh1 emissions_veh1" vType="highEmissions" speedFactor="0.94" vaporized="">
        <emissions CO_abs="39481.607942" CO2_abs="2610638.611241" HC_abs="398.249149" PMx_abs="72.591835" NOx_abs="786.824772" fuel_abs="1122.157645" electricity_abs="0"/>
    </tripinfo>
    <tripinfo id="veh2" depart="7.00" departLane="-D_0" departPos="5.10" departSpeed="0.00" departDelay="5.00" arrival="1292.00" arrivalLane="B_0" arrivalPos="1742.80" arrivalSpeed="13.61" duration="1285.00" routeLength="15744.90" waitingTime="0.00" waitingCount="0" stopTime="0.00" timeLoss="162.43" rerouteNo="1" devices="tripinfo_veh2 routing_veh2 emissions_veh2" vType="hovGasolinaEuroSix" speedFactor="1.01" vaporized="">
        <emissions CO_abs="347.009642" CO2_abs="2175524.305357" HC_abs="98.215914" PMx_abs="40.096568" NOx_abs="3566.158003" fuel_abs="818.506677" electricity_abs="0"/>
    </tripinfo>
    <tripinfo id="veh3" depart="10.00" departLane="-D_0" departPos="5.10" departSpeed="0.00" departDelay="8.00" arrival="1293.00" arrivalLane="B_0" arrivalPos="1742.80" arrivalSpeed="14.65" duration="1283.00" routeLength="15744.90" waitingTime="0.00" waitingCount="0" stopTime="0.00" timeLoss="235.90" rerouteNo="1" devices="tripinfo_veh3 routing_veh3 emissions_veh3" vType="highEmissions" speedFactor="1.08" vaporized="">
        <emissions CO_abs="64964.251272" CO2_abs="3358369.398182" HC_abs="594.315721" PMx_abs="113.154506" NOx_abs="1040.064021" fuel_abs="1443.607880" electricity_abs="0"/>
    </tripinfo>
    <tripinfo id="veh8" depart="32.00" departLane="-B_0" departPos="5.10" departSpeed="0.00" departDelay="0.00" arrival="1316.00" arrivalLane="D_0" arrivalPos="1742.80" arrivalSpeed="12.65" duration="1284.00" routeLength="15744.90" waitingTime="0.00" waitingCount="0" stopTime="0.00" timeLoss="75.14" rerouteNo="1" devices="tripinfo_veh8 routing_veh8 emissions_veh8" vType="normalVehicle" speedFactor="0.94" vaporized="">
        <emissions CO_abs="22680.782063" CO2_abs="2530032.702091" HC_abs="161.548894" PMx_abs="34.499171" NOx_abs="951.781307" fuel_abs="1087.556277" electricity_abs="0"/>
    </tripinfo>
    <tripinfo id="veh51" depart="202.00" departLane="-A_0" departPos="5.10" departSpeed="0.00" departDelay="0.00" arrival="1466.00" arrivalLane="C_0" arrivalPos="1742.80" arrivalSpeed="16.09" duration="1264.00" routeLength="19233.74" waitingTime="0.00" waitingCount="0" stopTime="0.00" timeLoss="76.17" rerouteNo="3" devices="tripinfo_veh51 routing_veh51 emissions_veh51" vType="gasolineEuroSix" speedFactor="1.17" vaporized="">
        <emissions CO_abs="62593.793476" CO2_abs="3093136.443257" HC_abs="330.078475" PMx_abs="120.179583" NOx_abs="687.226512" fuel_abs="1329.733595" electricity_abs="0"/>
    </tripinfo>
    <tripinfo id="veh14" depart="71.00" departLane="-B_0" departPos="5.10" departSpeed="0.00" departDelay="0.00" arrival="1562.00" arrivalLane="D_0" arrivalPos="1742.80" arrivalSpeed="13.48" duration="1491.00" routeLength="19233.74" waitingTime="0.00" waitingCount="0" stopTime="0.00" timeLoss="90.64" rerouteNo="2" devices="tripinfo_veh14 routing_veh14 emissions_veh14" vType="dieselEuroSix" speedFactor="0.99" vaporized="">
        <emissions CO_abs="314.749829" CO2_abs="2888628.061487" HC_abs="100.042985" PMx_abs="0" NOx_abs="4948.098379" fuel_abs="1086.854592" electricity_abs="0"/>
    </tripinfo>
    <tripinfo id="veh61" depart="238.00" departLane="-A_0" departPos="5.10" departSpeed="0.00" departDelay="0.00" arrival="1574.00" arrivalLane="C_0" arrivalPos="1742.80" arrivalSpeed="15.29" duration="1336.00" routeLength="19233.74" waitingTime="0.00" waitingCount="0" stopTime="0.00" timeLoss="96.31" rerouteNo="3" devices="tripinfo_veh61 routing_veh61 emissions_veh61" vType="dieselEuroSix" speedFactor="1.12" vaporized="">
        <emissions CO_abs="282.221512" CO2_abs="2968143.580363" HC_abs="101.760759" PMx_abs="0" NOx_abs="5254.673744" fuel_abs="1116.784824" electricity_abs="0"/>
    </tripinfo>
    <tripinfo id="veh22" depart="91.00" departLane="-H_0" departPos="5.10" departSpeed="0.00" departDelay="0.00" arrival="1596.00" arrivalLane="F_0" arrivalPos="1742.80" arrivalSpeed="13.12" duration="1505.00" routeLength="19233.74" waitingTime="0.00" waitingCount="0" stopTime="0.00" timeLoss="81.64" rerouteNo="2" devices="tripinfo_veh22 routing_veh22 emissions_veh22" vType="normalVehicle" speedFactor="0.98" vaporized="">
        <emissions CO_abs="24216.255340" CO2_abs="2887867.411217" HC_abs="176.876243" PMx_abs="39.943664" NOx_abs="1085.191795" fuel_abs="1241.372784" electricity_abs="0"/>
    </tripinfo>
    <tripinfo id="veh32" depart="147.00" departLane="-C_0" departPos="5.10" departSpeed="0.00" departDelay="0.00" arrival="1621.00" arrivalLane="A_0" arrivalPos="1742.80" arrivalSpeed="13.91" duration="1474.00" routeLength="19233.74" waitingTime="2.00" waitingCount="1" stopTime="0.00" timeLoss="93.57" rerouteNo="3" devices="tripinfo_veh32 routing_veh32 emissions_veh32" vType="gasolineEuroSix" speedFactor="1.01" vaporized="">
        <emissions CO_abs="61227.214629" CO2_abs="3145763.392908" HC_abs="320.534943" PMx_abs="114.248321" NOx_abs="716.515589" fuel_abs="1352.360654" electricity_abs="0"/>
    </tripinfo>
    <tripinfo id="veh15" depart="73.00" departLane="-F_0" departPos="5.10" departSpeed="0.00" departDelay="0.00" arrival="1656.00" arrivalLane="H_0" arrivalPos="1742.80" arrivalSpeed="12.67" duration="1583.00" routeLength="19233.74" waitingTime="0.00" waitingCount="0" stopTime="0.00" timeLoss="85.81" rerouteNo="2" devices="tripinfo_veh15 routing_veh15 emissions_veh15" vType="dieselEuroSix" speedFactor="0.93" vaporized="">
        <emissions CO_abs="316.615586" CO2_abs="2742430.779515" HC_abs="94.683303" PMx_abs="0" NOx_abs="4660.276243" fuel_abs="1031.843443" electricity_abs="0"/>
    </tripinfo>
    <tripinfo id="veh57" depart="227.00" departLane="-F_0" departPos="5.10" departSpeed="0.00" departDelay="0.00" arrival="1658.00" arrivalLane="H_0" arrivalPos="1742.80" arrivalSpeed="15.85" duration="1431.00" routeLength="19233.74" waitingTime="0.00" waitingCount="0" stopTime="0.00" timeLoss="215.76" rerouteNo="3" devices="tripinfo_veh57 routing_veh57 emissions_veh57" vType="authority@veh57" speedFactor="1.14" vaporized="">
        <emissions CO_abs="369.851726" CO2_abs="2328113.740140" HC_abs="109.845892" PMx_abs="37.102915" NOx_abs="3676.099589" fuel_abs="875.899379" electricity_abs="0"/>
    </tripinfo>
    <tripinfo id="veh37" depart="156.00" departLane="-F_0" departPos="7.20" departSpeed="0.00" departDelay="0.00" arrival="1660.00" arrivalLane="H_0" arrivalPos="1742.80" arrivalSpeed="14.50" duration="1504.00" routeLength="19231.64" waitingTime="8.00" waitingCount="1" stopTime="0.00" timeLoss="230.03" rerouteNo="2" devices="tripinfo_veh37 routing_veh37 emissions_veh37" vType="truck" speedFactor="1.09" vaporized="">
        <emissions CO_abs="19773.261309" CO2_abs="17450146.604992" HC_abs="502.263415" PMx_abs="384.058859" NOx_abs="110028.457777" fuel_abs="6565.688236" electricity_abs="0"/>
    </tripinfo>
    <tripinfo id="veh7" depart="25.00" departLane="-G_0" departPos="5.10" departSpeed="0.00" departDelay="0.00" arrival="1690.00" arrivalLane="E_0" arrivalPos="1742.80" arrivalSpeed="11.43" duration="1665.00" routeLength="19233.74" waitingTime="0.00" waitingCount="0" stopTime="0.00" timeLoss="97.82" rerouteNo="2" devices="tripinfo_veh7 routing_veh7 emissions_veh7" vType="highEmissions" speedFactor="0.89" vaporized="">
        <emissions CO_abs="47845.639579" CO2_abs="3121320.664793" HC_abs="466.789102" PMx_abs="85.925363" NOx_abs="968.232408" fuel_abs="1341.658042" electricity_abs="0"/>
    </tripinfo>
    <tripinfo id="veh12" depart="61.00" departLane="-G_0" departPos="5.10" departSpeed="0.00" departDelay="0.00" arrival="1691.00" arrivalLane="E_0" arrivalPos="1742.80" arrivalSpeed="13.66" duration="1630.00" routeLength="19233.74" waitingTime="0.00" waitingCount="0" stopTime="0.00" timeLoss="304.82" rerouteNo="2" devices="tripinfo_veh12 routing_veh12 emissions_veh12" vType="hovGasolinaEuroSix" speedFactor="1.05" vaporized="">
        <emissions CO_abs="433.464474" CO2_abs="2620586.897816" HC_abs="118.692571" PMx_abs="49.922947" NOx_abs="4307.692374" fuel_abs="985.951523" electricity_abs="0"/>
    </tripinfo>
    <tripinfo id="veh13" depart="64.00" departLane="-G_0" departPos="5.10" departSpeed="0.00" departDelay="3.00" arrival="1693.00" arrivalLane="E_0" arrivalPos="1742.80" arrivalSpeed="15.13" duration="1629.00" routeLength="19233.74" waitingTime="0.00" waitingCount="0" stopTime="0.00" timeLoss="392.62" rerouteNo="2" devices="tripinfo_veh13 routing_veh13 emissions_veh13" vType="highEmissions" speedFactor="1.12" vaporized="">
        <emissions CO_abs="78576.684040" CO2_abs="4064587.421658" HC_abs="711.259334" PMx_abs="135.815140" NOx_abs="1274.335284" fuel_abs="1747.170208" electricity_abs="0"/>
    </tripinfo>
    <tripinfo id="veh55" depart="215.00" departLane="-D_0" departPos="5.10" departSpeed="0.00" departDelay="3.00" arrival="1698.00" arrivalLane="B_0" arrivalPos="1742.80" arrivalSpeed="13.02" duration="1483.00" routeLength="19233.74" waitingTime="0.00" waitingCount="0" stopTime="0.00" timeLoss="88.92" rerouteNo="5" devices="tripinfo_veh55 routing_veh55 emissions_veh55" vType="authority@veh55" speedFactor="1.00" vaporized="">
        <emissions CO_abs="46061.135713" CO2_abs="3165570.724590" HC_abs="483.543594" PMx_abs="87.114937" NOx_abs="927.618162" fuel_abs="1360.695910" electricity_abs="0"/>
    </tripinfo>
    <tripinfo id="veh46" depart="190.00" departLane="-C_0" departPos="5.10" departSpeed="0.00" departDelay="0.00" arrival="1710.00" arrivalLane="A_0" arrivalPos="1742.80" arrivalSpeed="13.54" duration="1520.00" routeLength="19233.74" waitingTime="1.00" waitingCount="1" stopTime="0.00" timeLoss="127.96" rerouteNo="3" devices="tripinfo_veh46 routing_veh46 emissions_veh46" vType="gasolineEuroSix" speedFactor="1.00" vaporized="">
        <emissions CO_abs="66699.451407" CO2_abs="3255586.539172" HC_abs="343.197826" PMx_abs="121.490501" NOx_abs="740.710776" fuel_abs="1399.576448" electricity_abs="0"/>
    </tripinfo>
    <tripinfo id="veh26" depart="112.00" departLane="-G_0" departPos="7.20" departSpeed="0.00" departDelay="4.00" arrival="1715.00" arrivalLane="E_0" arrivalPos="1742.80" arrivalSpeed="12.73" duration="1603.00" routeLength="19231.64" waitingTime="0.00" waitingCount="0" stopTime="0.00" timeLoss="155.26" rerouteNo="2" devices="tripinfo_veh26 routing_veh26 emissions_veh26" vType="truck" speedFactor="0.96" vaporized="">
        <emissions CO_abs="20681.173747" CO2_abs="17991733.515428" HC_abs="523.122144" PMx_abs="405.534581" NOx_abs="114069.063092" fuel_abs="6769.448383" electricity_abs="0"/>
    </tripinfo>
    <tripinfo id="veh28" depart="117.00" departLane="-G_0" departPos="5.10" departSpeed="0.00" departDelay="0.00" arrival="1717.00" arrivalLane="E_0" arrivalPos="1742.80" arrivalSpeed="15.56" duration="1600.00" routeLength="19233.74" waitingTime="0.00" waitingCount="0" stopTime="0.00" timeLoss="372.88" rerouteNo="4" devices="tripinfo_veh28 routing_veh28 emissions_veh28" vType="normalVehicle" speedFactor="1.13" vaporized="">
        <emissions CO_abs="37361.587878" CO2_abs="3513099.342948" HC_abs="251.782333" PMx_abs="53.477477" NOx_abs="1364.915728" fuel_abs="1510.131649" electricity_abs="0"/>
    </tripinfo>
    <tripinfo id="veh31" depart="135.00" departLane="-G_0" departPos="5.10" departSpeed="0.00" departDelay="0.00" arrival="1718.00" arrivalLane="E_0" arrivalPos="1742.80" arrivalSpeed="14.97" duration="1583.00" routeLength="19233.74" waitingTime="0.00" waitingCount="0" stopTime="0.00" timeLoss="380.94" rerouteNo="4" devices="tripinfo_veh31 routing_veh31 emissions_veh31" vType="highEmissions" speedFactor="1.15" vaporized="">
        <emissions CO_abs="73583.469330" CO2_abs="3961956.063932" HC_abs="681.885117" PMx_abs="129.045558" NOx_abs="1223.953452" fuel_abs="1703.050642" electricity_abs="0"/>
    </tripinfo>
    <tripinfo id="veh35" depart="153.00" departLane="-G_0" departPos="5.10" departSpeed="0.00" departDelay="0.00" arrival="1720.00" arrivalLane="E_0" arrivalPos="1742.80" arrivalSpeed="13.81" duration="1567.00" routeLength="19233.74" waitingTime="0.00" waitingCount="0" stopTime="0.00" timeLoss="206.07" rerouteNo="4" devices="tripinfo_veh35 routing_veh35 emissions_veh35" vType="gasolineEuroSix" speedFactor="1.02" vaporized="">
        <emissions CO_abs="89400.283844" CO2_abs="3782912.664866" HC_abs="444.418191" PMx_abs="156.960511" NOx_abs="846.782488" fuel_abs="1626.283486" electricity_abs="0"/>
    </tripinfo>
    <tripinfo id="veh45" depart="185.00" departLane="-G_0" departPos="5.10" departSpeed="0.00" departDelay="0.00" arrival="1722.00" arrivalLane="E_0" arrivalPos="1742.80" arrivalSpeed="14.14" duration="1537.00" routeLength="19233.74" waitingTime="0.00" waitingCount="0" stopTime="0.00" timeLoss="260.33" rerouteNo="4" devices="tripinfo_veh45 routing_veh45 emissions_veh45" vType="normalVehicle" speedFactor="1.09" vaporized="">
        <emissions CO_abs="42477.656637" CO2_abs="3819842.865210" HC_abs="282.499330" PMx_abs="62.450645" NOx_abs="1510.169027" fuel_abs="1641.982708" electricity_abs="0"/>
    </tripinfo>
    <tripinfo id="veh47" depart="192.00" departLane="-F_0" departPos="7.20" departSpeed="0.00" departDelay="0.00" arrival="1723.00" arrivalLane="H_0" arrivalPos="1742.80" arrivalSpeed="12.17" duration="1531.00" routeLength="19231.64" waitingTime="0.00" waitingCount="0" stopTime="0.00" timeLoss="71.15" rerouteNo="2" devices="tripinfo_veh47 routing_veh47 emissions_veh47" vType="authority@veh47" speedFactor="0.95" vaporized="">
        <emissions CO_abs="19691.951111" CO2_abs="17216013.481855" HC_abs="499.200504" PMx_abs="383.406975" NOx_abs="108928.271486" fuel_abs="6477.545422" electricity_abs="0"/>
    </tripinfo>
    <tripinfo id="veh63" depart="244.00" departLane="-F_0" departPos="5.10" departSpeed="0.00" departDelay="0.00" arrival="1731.00" arrivalLane="H_0" arrivalPos="1742.80" arrivalSpeed="12.47" duration="1487.00" routeLength="19233.74" waitingTime="0.00" waitingCount="0" stopTime="0.00" timeLoss="80.68" rerouteNo="4" devices="tripinfo_veh63 routing_veh63 emissions_veh63" vType="hovGasolinaEuroSix" speedFactor="0.99" vaporized="">
        <emissions CO_abs="365.746144" CO2_abs="2119428.135064" HC_abs="102.973685" PMx_abs="33.128670" NOx_abs="3278.520572" fuel_abs="797.374097" electricity_abs="0"/>
    </tripinfo>
    <tripinfo id="veh80" depart="302.00" departLane="-G_0" departPos="5.10" departSpeed="0.00" departDelay="0.00" arrival="1731.00" arrivalLane="E_0" arrivalPos="1742.80" arrivalSpeed="14.09" duration="1429.00" routeLength="19233.74" waitingTime="0.00" waitingCount="0" stopTime="0.00" timeLoss="87.33" rerouteNo="4" devices="tripinfo_veh80 routing_veh80 emissions_veh80" vType="hovGasolinaEuroSix" speedFactor="1.03" vaporized="">
        <emissions CO_abs="368.882204" CO2_abs="2240754.238632" HC_abs="108.091490" PMx_abs="34.032516" NOx_abs="3473.990486" fuel_abs="843.023526" electricity_abs="0"/>
    </tripinfo>
    <tripinfo id="veh23" depart="94.00" departLane="-H_0" departPos="5.10" departSpeed="0.00" departDelay="2.00" arrival="1750.00" arrivalLane="F_0" arrivalPos="1742.80" arrivalSpeed="11.50" duration="1656.00" routeLength="19233.74" waitingTime="0.00" waitingCount="0" stopTime="0.00" timeLoss="95.72" rerouteNo="2" devices="tripinfo_veh23 routing_veh23 emissions_veh23" vType="eVehicle" speedFactor="0.89" vaporized="">
        <emissions CO_abs="0" CO2_abs="0" HC_abs="0" PMx_abs="0" NOx_abs="0" fuel_abs="0" electricity_abs="0"/>
    </tripinfo>
    <tripinfo id="veh38" depart="159.00" departLane="-H_0" departPos="5.10" departSpeed="0.00" departDelay="0.00" arrival="1751.00" arrivalLane="F_0" arrivalPos="1742.80" arrivalSpeed="13.08" duration="1592.00" routeLength="19233.74" waitingTime="0.00" waitingCount="0" stopTime="0.00" timeLoss="333.00" rerouteNo="2" devices="tripinfo_veh38 routing_veh38 emissions_veh38" vType="eVehicle" speedFactor="1.10" vaporized="">
        <emissions CO_abs="0" CO2_abs="0" HC_abs="0" PMx_abs="0" NOx_abs="0" fuel_abs="0" electricity_abs="0"/>
    </tripinfo>
    <tripinfo id="veh9" depart="35.00" departLane="-E_0" departPos="5.10" departSpeed="0.00" departDelay="0.00" arrival="1756.00" arrivalLane="G_0" arrivalPos="1742.80" arrivalSpeed="11.15" duration="1721.00" routeLength="19233.74" waitingTime="0.00" waitingCount="0" stopTime="0.00" timeLoss="101.77" rerouteNo="2" devices="tripinfo_veh9 routing_veh9 emissions_veh9" vType="normalVehicle" speedFactor="0.86" vaporized="">
        <emissions CO_abs="31954.769790" CO2_abs="3064428.396044" HC_abs="215.611794" PMx_abs="40.760813" NOx_abs="1155.953982" fuel_abs="1317.275241" electricity_abs="0"/>
    </tripinfo>
    <tripinfo id="veh10" depart="47.00" departLane="-E_0" departPos="5.10" departSpeed="0.00" departDelay="0.00" arrival="1758.00" arrivalLane="G_0" arrivalPos="1742.80" arrivalSpeed="14.10" duration="1711.00" routeLength="19233.74" waitingTime="0.00" waitingCount="0" stopTime="0.00" timeLoss="438.10" rerouteNo="2" devices="tripinfo_veh10 routing_veh10 emissions_veh10" vType="normalVehicle" speedFactor="1.09" vaporized="">
        <emissions CO_abs="43443.125779" CO2_abs="3672874.369431" HC_abs="283.037677" PMx_abs="56.390319" NOx_abs="1439.062729" fuel_abs="1578.814208" electricity_abs="0"/>
    </tripinfo>
    <tripinfo id="veh18" depart="82.00" departLane="-E_0" departPos="5.10" departSpeed="0.00" departDelay="0.00" arrival="1759.00" arrivalLane="G_0" arrivalPos="1742.80" arrivalSpeed="12.01" duration="1677.00" routeLength="19233.74" waitingTime="0.00" waitingCount="0" stopTime="0.00" timeLoss="195.53" rerouteNo="2" devices="tripinfo_veh18 routing_veh18 emissions_veh18" vType="normalVehicle" speedFactor="0.94" vaporized="">
        <emissions CO_abs="44021.480323" CO2_abs="3777543.766149" HC_abs="288.326409" PMx_abs="58.802447" NOx_abs="1483.531187" fuel_abs="1623.805571" electricity_abs="0"/>
    </tripinfo>
    <tripinfo id="veh20" depart="85.00" departLane="-E_0" departPos="5.10" departSpeed="0.00" departDelay="0.00" arrival="1761.00" arrivalLane="G_0" arrivalPos="1742.80" arrivalSpeed="13.68" duration="1676.00" routeLength="19233.74" waitingTime="0.00" waitingCount="0" stopTime="0.00" timeLoss="312.24" rerouteNo="2" devices="tripinfo_veh20 routing_veh20 emissions_veh20" vType="gasolineEuroSix" speedFactor="1.02" vaporized="">
        <emissions CO_abs="110140.503174" CO2_abs="4260806.290676" HC_abs="534.206782" PMx_abs="187.028599" NOx_abs="948.738062" fuel_abs="1831.739229" electricity_abs="0"/>
    </tripinfo>
    <tripinfo id="veh21" depart="88.00" departLane="-E_0" departPos="5.10" departSpeed="0.00" departDelay="3.00" arrival="1763.00" arrivalLane="G_0" arrivalPos="1742.80" arrivalSpeed="13.69" duration="1675.00" routeLength="19233.74" waitingTime="0.00" waitingCount="0" stopTime="0.00" timeLoss="300.69" rerouteNo="2" devices="tripinfo_veh21 routing_veh21 emissions_veh21" vType="normalVehicle" speedFactor="1.01" vaporized="">
        <emissions CO_abs="55728.266718" CO2_abs="4341099.418657" HC_abs="355.767123" PMx_abs="74.237346" NOx_abs="1753.214838" fuel_abs="1866.047863" electricity_abs="0"/>
    </tripinfo>
    <tripinfo id="veh16" depart="79.00" departLane="-B_0" departPos="5.10" departSpeed="0.00" departDelay="0.00" arrival="1765.00" arrivalLane="D_0" arrivalPos="1742.80" arrivalSpeed="11.00" duration="1686.00" routeLength="19233.74" waitingTime="0.00" waitingCount="0" stopTime="0.00" timeLoss="106.04" rerouteNo="2" devices="tripinfo_veh16 routing_veh16 emissions_veh16" vType="gasolineEuroSix" speedFactor="0.88" vaporized="">
        <emissions CO_abs="64409.843429" CO2_abs="3184841.449446" HC_abs="327.079029" PMx_abs="112.980067" NOx_abs="738.128304" fuel_abs="1369.164079" electricity_abs="0"/>
    </tripinfo>
    <tripinfo id="veh27" depart="111.00" departLane="-E_0" departPos="7.20" departSpeed="0.00" departDelay="0.00" arrival="1765.00" arrivalLane="G_0" arrivalPos="1742.80" arrivalSpeed="13.19" duration="1654.00" routeLength="19231.64" waitingTime="0.00" waitingCount="0" stopTime="0.00" timeLoss="229.59" rerouteNo="2" devices="tripinfo_veh27 routing_veh27 emissions_veh27" vType="truck" speedFactor="0.97" vaporized="">
        <emissions CO_abs="26529.561212" CO2_abs="23712690.984836" HC_abs="673.543769" PMx_abs="522.029760" NOx_abs="148907.983639" fuel_abs="8922.318889" electricity_abs="0"/>
    </tripinfo>
    <tripinfo id="veh17" depart="82.00" departLane="-B_0" departPos="5.10" departSpeed="0.00" departDelay="3.00" arrival="1766.00" arrivalLane="D_0" arrivalPos="1742.80" arrivalSpeed="12.06" duration="1684.00" routeLength="19233.74" waitingTime="0.00" waitingCount="0" stopTime="0.00" timeLoss="209.63" rerouteNo="2" devices="tripinfo_veh17 routing_veh17 emissions_veh17" vType="hovGasolinaEuroSix" speedFactor="0.94" vaporized="">
        <emissions CO_abs="451.753312" CO2_abs="2736098.127482" HC_abs="121.965794" PMx_abs="54.629989" NOx_abs="4560.672155" fuel_abs="1029.417310" electricity_abs="0"/>
    </tripinfo>
    <tripinfo id="veh40" depart="163.00" departLane="-E_0" departPos="5.10" departSpeed="0.00" departDelay="0.00" arrival="1766.00" arrivalLane="G_0" arrivalPos="1742.80" arrivalSpeed="13.75" duration="1603.00" routeLength="19233.74" waitingTime="0.00" waitingCount="0" stopTime="0.00" timeLoss="256.66" rerouteNo="2" devices="tripinfo_veh40 routing_veh40 emissions_veh40" vType="hovGasolinaEuroSix" speedFactor="1.03" vaporized="">
        <emissions CO_abs="451.377476" CO2_abs="2810033.971402" HC_abs="125.969316" PMx_abs="53.765394" NOx_abs="4649.314999" fuel_abs="1057.233178" electricity_abs="0"/>
    </tripinfo>
    <tripinfo id="veh29" depart="124.00" departLane="-B_0" departPos="5.10" departSpeed="0.00" departDelay="0.00" arrival="1768.00" arrivalLane="D_0" arrivalPos="1742.80" arrivalSpeed="12.19" duration="1644.00" routeLength="19233.74" waitingTime="0.00" waitingCount="0" stopTime="0.00" timeLoss="154.37" rerouteNo="2" devices="tripinfo_veh29 routing_veh29 emissions_veh29" vType="eVehicle" speedFactor="0.93" vaporized="">
        <emissions CO_abs="0" CO2_abs="0" HC_abs="0" PMx_abs="0" NOx_abs="0" fuel_abs="0" electricity_abs="0"/>
    </tripinfo>
    <tripinfo id="veh42" depart="174.00" departLane="-E_0" departPos="5.10" departSpeed="0.00" departDelay="0.00" arrival="1768.00" arrivalLane="G_0" arrivalPos="1742.80" arrivalSpeed="14.11" duration="1594.00" routeLength="19233.74" waitingTime="0.00" waitingCount="0" stopTime="0.00" timeLoss="322.74" rerouteNo="2" devices="tripinfo_veh42 routing_veh42 emissions_veh42" vType="normalVehicle" speedFactor="1.09" vaporized="">
        <emissions CO_abs="49547.055695" CO2_abs="4132913.150477" HC_abs="322.203421" PMx_abs="69.116588" NOx_abs="1650.575024" fuel_abs="1776.557914" electricity_abs="0"/>
    </tripinfo>
    <tripinfo id="veh30" depart="134.00" departLane="-B_0" departPos="5.10" departSpeed="0.00" departDelay="0.00" arrival="1770.00" arrivalLane="D_0" arrivalPos="1742.80" arrivalSpeed="15.69" duration="1636.00" routeLength="19233.74" waitingTime="1.00" waitingCount="1" stopTime="0.00" timeLoss="457.87" rerouteNo="2" devices="tripinfo_veh30 routing_veh30 emissions_veh30" vType="normalVehicle" speedFactor="1.18" vaporized="">
        <emissions CO_abs="50680.159281" CO2_abs="4154184.895483" HC_abs="328.101233" PMx_abs="68.985278" NOx_abs="1659.192545" fuel_abs="1785.702936" electricity_abs="0"/>
    </tripinfo>
    <tripinfo id="veh43" depart="181.00" departLane="-E_0" departPos="7.20" departSpeed="0.00" departDelay="0.00" arrival="1770.00" arrivalLane="G_0" arrivalPos="1742.80" arrivalSpeed="13.91" duration="1589.00" routeLength="19231.64" waitingTime="0.00" waitingCount="0" stopTime="0.00" timeLoss="227.42" rerouteNo="2" devices="tripinfo_veh43 routing_veh43 emissions_veh43" vType="truck" speedFactor="1.02" vaporized="">
        <emissions CO_abs="24886.636873" CO2_abs="22230010.264406" HC_abs="632.307627" PMx_abs="487.601831" NOx_abs="139607.266343" fuel_abs="8364.370142" electricity_abs="0"/>
    </tripinfo>
    <tripinfo id="veh33" depart="150.00" departLane="-B_0" departPos="5.10" departSpeed="0.00" departDelay="0.00" arrival="1771.00" arrivalLane="D_0" arrivalPos="1742.80" arrivalSpeed="15.34" duration="1621.00" routeLength="19233.74" waitingTime="0.00" waitingCount="0" stopTime="0.00" timeLoss="436.82" rerouteNo="2" devices="tripinfo_veh33 routing_veh33 emissions_veh33" vType="gasolineEuroSix" speedFactor="1.17" vaporized="">
        <emissions CO_abs="118410.408794" CO2_abs="4437412.848994" HC_abs="572.348355" PMx_abs="201.156778" NOx_abs="979.528531" fuel_abs="1907.664781" electricity_abs="0"/>
    </tripinfo>
    <tripinfo id="veh58" depart="229.00" departLane="-E_0" departPos="5.10" departSpeed="0.00" departDelay="0.00" arrival="1772.00" arrivalLane="G_0" arrivalPos="1742.80" arrivalSpeed="13.71" duration="1543.00" routeLength="19233.74" waitingTime="0.00" waitingCount="0" stopTime="0.00" timeLoss="187.02" rerouteNo="2" devices="tripinfo_veh58 routing_veh58 emissions_veh58" vType="gasolineEuroSix" speedFactor="1.02" vaporized="">
        <emissions CO_abs="76616.090555" CO2_abs="3485198.565128" HC_abs="387.077803" PMx_abs="136.655892" NOx_abs="787.524200" fuel_abs="1498.290570" electricity_abs="0"/>
    </tripinfo>
    <tripinfo id="veh44" depart="182.00" departLane="-B_0" departPos="5.10" departSpeed="0.00" departDelay="0.00" arrival="1773.00" arrivalLane="D_0" arrivalPos="1742.80" arrivalSpeed="13.84" duration="1591.00" routeLength="19233.74" waitingTime="0.00" waitingCount="0" stopTime="0.00" timeLoss="260.96" rerouteNo="2" devices="tripinfo_veh44 routing_veh44 emissions_veh44" vType="eVehicle" speedFactor="1.04" vaporized="">
        <emissions CO_abs="0" CO2_abs="0" HC_abs="0" PMx_abs="0" NOx_abs="0" fuel_abs="0" electricity_abs="0"/>
    </tripinfo>
    <tripinfo id="veh53" depart="209.00" departLane="-B_0" departPos="5.10" departSpeed="0.00" departDelay="0.00" arrival="1775.00" arrivalLane="D_0" arrivalPos="1742.80" arrivalSpeed="14.60" duration="1566.00" routeLength="19233.74" waitingTime="0.00" waitingCount="0" stopTime="0.00" timeLoss="298.57" rerouteNo="2" devices="tripinfo_veh53 routing_veh53 emissions_veh53" vType="normalVehicle" speedFactor="1.10" vaporized="">
        <emissions CO_abs="52337.265801" CO2_abs="4298862.039909" HC_abs="338.871078" PMx_abs="73.188222" NOx_abs="1723.237063" fuel_abs="1847.890935" electricity_abs="0"/>