<?xml version="1.0" encoding="UTF-8"?>

<!-- generated on 02/10/21 17:43:51 by Eclipse SUMO GUI Version 1.7.0
<configuration xmlns:xsi="http://www.w3.org/2001/XMLSchema-instance" xsi:noNamespaceSchemaLocation="http://sumo.dlr.de/xsd/sumoConfiguration.xsd">

    <input>
        <net-file value="casebase.net.xml"/>
        <route-files value="casebase.rou.xml"/>
        <additional-files value="casebase.add.xml"/>
    </input>

    <output>
        <emission-output value="emissionOutput.xml"/>
        <tripinfo-output value="tripinfo.xml"/>
    </output>

    <processing>
        <ignore-route-errors value="true"/>
    </processing>

    <traci_server>
        <remote-port value="52436"/>
    </traci_server>

</configuration>
-->

<tripinfos xmlns:xsi="http://www.w3.org/2001/XMLSchema-instance" xsi:noNamespaceSchemaLocation="http://sumo.dlr.de/xsd/tripinfo_file.xsd">
    <tripinfo id="veh3" depart="24.00" departLane="-H_0" departPos="5.10" departSpeed="0.00" departDelay="0.00" arrival="1121.00" arrivalLane="F_0" arrivalPos="1742.80" arrivalSpeed="14.38" duration="1097.00" routeLength="15744.90" waitingTime="0.00" waitingCount="0" stopTime="0.00" timeLoss="49.62" rerouteNo="1" devices="tripinfo_veh3 routing_veh3 emissions_veh3" vType="authority@veh3" speedFactor="1.08" vaporized="">
        <emissions CO_abs="0" CO2_abs="0" HC_abs="0" PMx_abs="0" NOx_abs="0" fuel_abs="0" electricity_abs="0"/>
    </tripinfo>
    <tripinfo id="veh0" depart="3.00" departLane="-D_0" departPos="5.10" departSpeed="0.00" departDelay="0.00" arrival="1142.00" arrivalLane="B_0" arrivalPos="1742.80" arrivalSpeed="13.86" duration="1139.00" routeLength="15744.90" waitingTime="0.00" waitingCount="0" stopTime="0.00" timeLoss="69.26" rerouteNo="1" devices="tripinfo_veh0 routing_veh0 emissions_veh0" vType="authority@veh0" speedFactor="1.06" vaporized="">
        <emissions CO_abs="19304.889763" CO2_abs="2399947.919850" HC_abs="142.716276" PMx_abs="34.894758" NOx_abs="905.925287" fuel_abs="1031.633940" electricity_abs="0"/>
    </tripinfo>
    <tripinfo id="veh6" depart="38.00" departLane="-E_0" departPos="5.10" departSpeed="0.00" departDelay="0.00" arrival="1175.00" arrivalLane="G_0" arrivalPos="1742.80" arrivalSpeed="14.34" duration="1137.00" routeLength="15744.90" waitingTime="0.00" waitingCount="0" stopTime="0.00" timeLoss="52.91" rerouteNo="1" devices="tripinfo_veh6 routing_veh6 emissions_veh6" vType="authority@veh6" speedFactor="1.05" vaporized="">
        <emissions CO_abs="0" CO2_abs="0" HC_abs="0" PMx_abs="0" NOx_abs="0" fuel_abs="0" electricity_abs="0"/>
    </tripinfo>
    <tripinfo id="veh1" depart="7.00" departLane="-F_0" departPos="5.10" departSpeed="0.00" departDelay="0.00" arrival="1282.00" arrivalLane="H_0" arrivalPos="1742.80" arrivalSpeed="11.80" duration="1275.00" routeLength="15744.90" waitingTime="0.00" waitingCount="0" stopTime="0.00" timeLoss="66.56" rerouteNo="1" devices="tripinfo_veh1 routing_veh1 emissions_veh1" vType="authority@veh1" speedFactor="0.94" vaporized="">
        <emissions CO_abs="0" CO2_abs="0" HC_abs="0" PMx_abs="0" NOx_abs="0" fuel_abs="0" electricity_abs="0"/>
    </tripinfo>
    <tripinfo id="veh2" depart="10.00" departLane="-F_0" departPos="5.10" departSpeed="0.00" departDelay="3.00" arrival="1284.00" arrivalLane="H_0" arrivalPos="1742.80" arrivalSpeed="13.98" duration="1274.00" routeLength="15744.90" waitingTime="0.00" waitingCount="0" stopTime="0.00" timeLoss="151.28" rerouteNo="1" devices="tripinfo_veh2 routing_veh2 emissions_veh2" vType="authority@veh2" speedFactor="1.01" vaporized="">
        <emissions CO_abs="29042.601551" CO2_abs="2837394.174188" HC_abs="198.343349" PMx_abs="43.464656" NOx_abs="1102.395058" fuel_abs="1219.673605" electricity_abs="0"/>
    </tripinfo>
    <tripinfo id="veh4" depart="34.00" departLane="-F_0" departPos="5.10" departSpeed="0.00" departDelay="0.00" arrival="1285.00" arrivalLane="H_0" arrivalPos="1742.80" arrivalSpeed="13.41" duration="1251.00" routeLength="15744.90" waitingTime="0.00" waitingCount="0" stopTime="0.00" timeLoss="150.76" rerouteNo="1" devices="tripinfo_veh4 routing_veh4 emissions_veh4" vType="authority@veh4" speedFactor="1.03" vaporized="">
        <emissions CO_abs="0" CO2_abs="0" HC_abs="0" PMx_abs="0" NOx_abs="0" fuel_abs="0" electricity_abs="0"/>
    </tripinfo>
    <tripinfo id="veh8" depart="66.00" departLane="-E_0" departPos="5.10" departSpeed="0.00" departDelay="0.00" arrival="1342.00" arrivalLane="G_0" arrivalPos="1742.80" arrivalSpeed="11.88" duration="1276.00" routeLength="15744.90" waitingTime="0.00" waitingCount="0" stopTime="0.00" timeLoss="66.84" rerouteNo="1" devices="tripinfo_veh8 routing_veh8 emissions_veh8" vType="authority@veh8" speedFactor="0.94" vaporized="">
        <emissions CO_abs="0" CO2_abs="0" HC_abs="0" PMx_abs="0" NOx_abs="0" fuel_abs="0" electricity_abs="0"/>
    </tripinfo>
    <tripinfo id="veh11" depart="103.00" departLane="-E_0" departPos="5.10" departSpeed="0.00" departDelay="0.00" arrival="1343.00" arrivalLane="G_0" arrivalPos="1742.80" arrivalSpeed="14.19" duration="1240.00" routeLength="15744.90" waitingTime="0.00" waitingCount="0" stopTime="0.00" timeLoss="135.49" rerouteNo="1" devices="tripinfo_veh11 routing_veh11 emissions_veh11" vType="authority@veh11" speedFactor="1.03" vaporized="">
        <emissions CO_abs="0" CO2_abs="0" HC_abs="0" PMx_abs="0" NOx_abs="0" fuel_abs="0" electricity_abs="0"/>
    </tripinfo>
    <tripinfo id="veh7" depart="39.00" departLane="-B_0" departPos="5.10" departSpeed="0.00" departDelay="0.00" arrival="1400.00" arrivalLane="D_0" arrivalPos="1742.80" arrivalSpeed="11.67" duration="1361.00" routeLength="15744.90" waitingTime="0.00" waitingCount="0" stopTime="0.00" timeLoss="81.57" rerouteNo="1" devices="tripinfo_veh7 routing_veh7 emissions_veh7" vType="authority@veh7" speedFactor="0.89" vaporized="">
        <emissions CO_abs="25652.136399" CO2_abs="2561697.914984" HC_abs="175.632184" PMx_abs="34.862307" NOx_abs="969.029254" fuel_abs="1101.169644" electricity_abs="0"/>
    </tripinfo>
    <tripinfo id="veh12" depart="105.00" departLane="-B_0" departPos="5.10" departSpeed="0.00" departDelay="0.00" arrival="1402.00" arrivalLane="D_0" arrivalPos="1742.80" arrivalSpeed="13.94" duration="1297.00" routeLength="15744.90" waitingTime="0.00" waitingCount="0" stopTime="0.00" timeLoss="213.87" rerouteNo="1" devices="tripinfo_veh12 routing_veh12 emissions_veh12" vType="authority@veh12" speedFactor="1.05" vaporized="">
        <emissions CO_abs="30979.335121" CO2_abs="2904698.520519" HC_abs="208.224383" PMx_abs="44.518612" NOx_abs="1129.608290" fuel_abs="1248.605696" electricity_abs="0"/>
    </tripinfo>
    <tripinfo id="veh13" depart="108.00" departLane="-B_0" departPos="5.10" departSpeed="0.00" departDelay="1.00" arrival="1404.00" arrivalLane="D_0" arrivalPos="1742.80" arrivalSpeed="14.58" duration="1296.00" routeLength="15744.90" waitingTime="0.00" waitingCount="0" stopTime="0.00" timeLoss="285.67" rerouteNo="1" devices="tripinfo_veh13 routing_veh13 emissions_veh13" vType="authority@veh13" speedFactor="1.12" vaporized="">
        <emissions CO_abs="39955.502315" CO2_abs="3350197.417989" HC_abs="260.406818" PMx_abs="56.194513" NOx_abs="1338.768968" fuel_abs="1440.102405" electricity_abs="0"/>
    </tripinfo>
    <tripinfo id="veh30" depart="246.00" departLane="-E_0" departPos="5.10" departSpeed="0.00" departDelay="0.00" arrival="1483.00" arrivalLane="G_0" arrivalPos="1742.80" arrivalSpeed="15.58" duration="1237.00" routeLength="19233.74" waitingTime="0.00" waitingCount="0" stopTime="0.00" timeLoss="59.47" rerouteNo="2" devices="tripinfo_veh30 routing_veh30 emissions_veh30" vType="authority@veh30" speedFactor="1.18" vaporized="">
        <emissions CO_abs="0" CO2_abs="0" HC_abs="0" PMx_abs="0" NOx_abs="0" fuel_abs="0" electricity_abs="0"/>
    </tripinfo>
    <tripinfo id="veh33" depart="282.00" departLane="-E_0" departPos="5.10" departSpeed="0.00" departDelay="0.00" arrival="1529.00" arrivalLane="G_0" arrivalPos="1742.80" arrivalSpeed="15.19" duration="1247.00" routeLength="19233.74" waitingTime="0.00" waitingCount="0" stopTime="0.00" timeLoss="62.86" rerouteNo="2" devices="tripinfo_veh33 routing_veh33 emissions_veh33" vType="authority@veh33" speedFactor="1.17" vaporized="">
        <emissions CO_abs="19138.049818" CO2_abs="2850938.919042" HC_abs="150.310984" PMx_abs="41.686998" NOx_abs="1059.428342" fuel_abs="1225.493335" electricity_abs="0"/>
    </tripinfo>
    <tripinfo id="veh14" depart="117.00" departLane="-C_0" departPos="5.10" departSpeed="0.00" departDelay="0.00" arrival="1604.00" arrivalLane="A_0" arrivalPos="1742.80" arrivalSpeed="12.94" duration="1487.00" routeLength="19233.74" waitingTime="0.00" waitingCount="0" stopTime="0.00" timeLoss="87.06" rerouteNo="2" devices="tripinfo_veh14 routing_veh14 emissions_veh14" vType="authority@veh14" speedFactor="0.99" vaporized="">
        <emissions CO_abs="0" CO2_abs="0" HC_abs="0" PMx_abs="0" NOx_abs="0" fuel_abs="0" electricity_abs="0"/>
    </tripinfo>
    <tripinfo id="veh21" depart="175.00" departLane="-D_0" departPos="5.10" departSpeed="0.00" departDelay="0.00" arrival="1636.00" arrivalLane="B_0" arrivalPos="1742.80" arrivalSpeed="13.03" duration="1461.00" routeLength="19233.74" waitingTime="0.00" waitingCount="0" stopTime="0.00" timeLoss="87.60" rerouteNo="3" devices="tripinfo_veh21 routing_veh21 emissions_veh21" vType="authority@veh21" speedFactor="1.01" vaporized="">
        <emissions CO_abs="24987.528520" CO2_abs="3063081.330089" HC_abs="184.213436" PMx_abs="43.029385" NOx_abs="1151.638468" fuel_abs="1316.688575" electricity_abs="0"/>
    </tripinfo>
    <tripinfo id="veh38" depart="345.00" departLane="-E_0" departPos="5.10" departSpeed="0.00" departDelay="0.00" arrival="1671.00" arrivalLane="G_0" arrivalPos="1742.80" arrivalSpeed="14.64" duration="1326.00" routeLength="19233.74" waitingTime="0.00" waitingCount="0" stopTime="0.00" timeLoss="67.01" rerouteNo="2" devices="tripinfo_veh38 routing_veh38 emissions_veh38" vType="authority@veh38" speedFactor="1.10" vaporized="">
        <emissions CO_abs="20834.955635" CO2_abs="2881978.725769" HC_abs="159.867367" PMx_abs="41.647107" NOx_abs="1078.238691" fuel_abs="1238.837193" electricity_abs="0"/>
    </tripinfo>
    <tripinfo id="veh17" depart="127.00" departLane="-B_0" departPos="5.10" departSpeed="0.00" departDelay="0.00" arrival="1698.00" arrivalLane="D_0" arrivalPos="1742.80" arrivalSpeed="12.73" duration="1571.00" routeLength="19233.74" waitingTime="0.00" waitingCount="0" stopTime="0.00" timeLoss="96.78" rerouteNo="2" devices="tripinfo_veh17 routing_veh17 emissions_veh17" vType="authority@veh17" speedFactor="0.94" vaporized="">
        <emissions CO_abs="26804.333101" CO2_abs="2988775.914901" HC_abs="190.871101" PMx_abs="40.648198" NOx_abs="1123.454235" fuel_abs="1284.751180" electricity_abs="0"/>
    </tripinfo>
    <tripinfo id="veh22" depart="185.00" departLane="-C_0" departPos="5.10" departSpeed="0.00" departDelay="0.00" arrival="1700.00" arrivalLane="A_0" arrivalPos="1742.80" arrivalSpeed="12.93" duration="1515.00" routeLength="19233.74" waitingTime="0.00" waitingCount="0" stopTime="0.00" timeLoss="91.66" rerouteNo="3" devices="tripinfo_veh22 routing_veh22 emissions_veh22" vType="authority@veh22" speedFactor="0.98" vaporized="">
        <emissions CO_abs="26245.775063" CO2_abs="3055186.461025" HC_abs="189.975820" PMx_abs="42.395588" NOx_abs="1149.893431" fuel_abs="1313.296438" electricity_abs="0"/>
    </tripinfo>
    <tripinfo id="veh15" depart="122.00" departLane="-H_0" departPos="5.10" departSpeed="0.00" departDelay="0.00" arrival="1709.00" arrivalLane="F_0" arrivalPos="1742.80" arrivalSpeed="11.89" duration="1587.00" routeLength="19233.74" waitingTime="0.00" waitingCount="0" stopTime="0.00" timeLoss="89.33" rerouteNo="2" devices="tripinfo_veh15 routing_veh15 emissions_veh15" vType="authority@veh15" speedFactor="0.93" vaporized="">
        <emissions CO_abs="0" CO2_abs="0" HC_abs="0" PMx_abs="0" NOx_abs="0" fuel_abs="0" electricity_abs="0"/>
    </tripinfo>
    <tripinfo id="veh42" depart="378.00" departLane="-A_0" departPos="5.10" departSpeed="0.00" departDelay="0.00" arrival="1727.00" arrivalLane="C_0" arrivalPos="1742.80" arrivalSpeed="15.07" duration="1349.00" routeLength="19233.74" waitingTime="0.00" waitingCount="0" stopTime="0.00" timeLoss="78.17" rerouteNo="3" devices="tripinfo_veh42 routing_veh42 emissions_veh42" vType="authority@veh42" speedFactor="1.09" vaporized="">
        <emissions CO_abs="22857.752805" CO2_abs="2976498.042280" HC_abs="171.713713" PMx_abs="43.557460" NOx_abs="1120.781256" fuel_abs="1279.466959" electricity_abs="0"/>
    </tripinfo>
    <tripinfo id="veh16" depart="123.00" departLane="-G_0" departPos="5.10" departSpeed="0.00" departDelay="0.00" arrival="1800.00" arrivalLane="E_0" arrivalPos="1742.80" arrivalSpeed="11.62" duration="1677.00" routeLength="19233.74" waitingTime="0.00" waitingCount="0" stopTime="0.00" timeLoss="97.69" rerouteNo="2" devices="tripinfo_veh16 routing_veh16 emissions_veh16" vType="authority@veh16" speedFactor="0.88" vaporized="">
        <emissions CO_abs="29869.463035" CO2_abs="3042124.285704" HC_abs="205.619903" PMx_abs="39.990852" NOx_abs="1141.275862" fuel_abs="1307.687068" electricity_abs="0"/>
    </tripinfo>
    <tripinfo id="veh20" depart="170.00" departLane="-G_0" departPos="5.10" departSpeed="0.00" departDelay="0.00" arrival="1802.00" arrivalLane="E_0" arrivalPos="1742.80" arrivalSpeed="13.55" duration="1632.00" routeLength="19233.74" waitingTime="0.00" waitingCount="0" stopTime="0.00" timeLoss="268.36" rerouteNo="2" devices="tripinfo_veh20 routing_veh20 emissions_veh20" vType="authority@veh20" speedFactor="1.02" vaporized="">
        <emissions CO_abs="39217.968199" CO2_abs="3551275.405307" HC_abs="260.885183" PMx_abs="54.072587" NOx_abs="1382.657217" fuel_abs="1526.542808" electricity_abs="0"/>
    </tripinfo>
    <tripinfo id="veh32" depart="277.00" departLane="-G_0" departPos="5.10" departSpeed="0.00" departDelay="0.00" arrival="1804.00" arrivalLane="E_0" arrivalPos="1742.80" arrivalSpeed="12.94" duration="1527.00" routeLength="19233.74" waitingTime="0.00" waitingCount="0" stopTime="0.00" timeLoss="145.71" rerouteNo="2" devices="tripinfo_veh32 routing_veh32 emissions_veh32" vType="authority@veh32" speedFactor="1.01" vaporized="">
        <emissions CO_abs="0" CO2_abs="0" HC_abs="0" PMx_abs="0" NOx_abs="0" fuel_abs="0" electricity_abs="0"/>
    </tripinfo>
    <tripinfo id="veh34" depart="285.00" departLane="-G_0" departPos="5.10" departSpeed="0.00" departDelay="0.00" arrival="1806.00" arrivalLane="E_0" arrivalPos="1742.80" arrivalSpeed="13.00" duration="1521.00" routeLength="19233.74" waitingTime="0.00" waitingCount="0" stopTime="0.00" timeLoss="125.09" rerouteNo="2" devices="tripinfo_veh34 routing_veh34 emissions_veh34" vType="authority@veh34" speedFactor="0.99" vaporized="">
        <emissions CO_abs="0" CO2_abs="0" HC_abs="0" PMx_abs="0" NOx_abs="0" fuel_abs="0" electricity_abs="0"/>
    </tripinfo>
    <tripinfo id="veh5" depart="37.00" departLane="-F_0" departPos="5.10" departSpeed="0.00" departDelay="2.00" arrival="1815.00" arrivalLane="H_0" arrivalPos="1742.80" arrivalSpeed="11.00" duration="1778.00" routeLength="19233.74" waitingTime="0.00" waitingCount="0" stopTime="0.00" timeLoss="108.05" rerouteNo="3" devices="tripinfo_veh5 routing_veh5 emissions_veh5" vType="authority@veh5" speedFactor="0.83" vaporized="">
        <emissions CO_abs="34188.865680" CO2_abs="3120334.121242" HC_abs="226.801884" PMx_abs="40.634678" NOx_abs="1174.302826" fuel_abs="1341.309319" electricity_abs="0"/>
    </tripinfo>
    <tripinfo id="veh9" depart="85.00" departLane="-A_0" departPos="5.10" departSpeed="0.00" departDelay="0.00" arrival="1817.00" arrivalLane="C_0" arrivalPos="1742.80" arrivalSpeed="10.90" duration="1732.00" routeLength="19233.74" waitingTime="1.00" waitingCount="1" stopTime="0.00" timeLoss="112.22" rerouteNo="2" devices="tripinfo_veh9 routing_veh9 emissions_veh9" vType="authority@veh9" speedFactor="0.86" vaporized="">
        <emissions CO_abs="33791.265997" CO2_abs="3132322.810550" HC_abs="225.591746" PMx_abs="42.255591" NOx_abs="1186.407876" fuel_abs="1346.460291" electricity_abs="0"/>
    </tripinfo>
    <tripinfo id="veh19" depart="166.00" departLane="-F_0" departPos="5.10" departSpeed="0.00" departDelay="0.00" arrival="1817.00" arrivalLane="H_0" arrivalPos="1742.80" arrivalSpeed="15.51" duration="1651.00" routeLength="19233.74" waitingTime="0.00" waitingCount="0" stopTime="0.00" timeLoss="452.55" rerouteNo="3" devices="tripinfo_veh19 routing_veh19 emissions_veh19" vType="authority@veh19" speedFactor="1.16" vaporized="">
        <emissions CO_abs="0" CO2_abs="0" HC_abs="0" PMx_abs="0" NOx_abs="0" fuel_abs="0" electricity_abs="0"/>
    </tripinfo>
    <tripinfo id="veh37" depart="313.00" departLane="-F_0" departPos="5.10" departSpeed="0.00" departDelay="0.00" arrival="1818.00" arrivalLane="H_0" arrivalPos="1742.80" arrivalSpeed="15.02" duration="1505.00" routeLength="19233.74" waitingTime="0.00" waitingCount="0" stopTime="0.00" timeLoss="329.19" rerouteNo="3" devices="tripinfo_veh37 routing_veh37 emissions_veh37" vType="authority@veh37" speedFactor="1.18" vaporized="">
        <emissions CO_abs="0" CO2_abs="0" HC_abs="0" PMx_abs="0" NOx_abs="0" fuel_abs="0" electricity_abs="0"/>
    </tripinfo>
    <tripinfo id="veh10" depart="93.00" departLane="-A_0" departPos="5.10" departSpeed="0.00" departDelay="0.00" arrival="1819.00" arrivalLane="C_0" arrivalPos="1742.80" arrivalSpeed="14.45" duration="1726.00" routeLength="19233.74" waitingTime="0.00" waitingCount="0" stopTime="0.00" timeLoss="453.31" rerouteNo="2" devices="tripinfo_veh10 routing_veh10 emissions_veh10" vType="authority@veh10" speedFactor="1.09" vaporized="">
        <emissions CO_abs="0" CO2_abs="0" HC_abs="0" PMx_abs="0" NOx_abs="0" fuel_abs="0" electricity_abs="0"/>
    </tripinfo>
    <tripinfo id="veh18" depart="154.00" departLane="-A_0" departPos="5.10" departSpeed="0.00" departDelay="0.00" arrival="1821.00" arrivalLane="C_0" arrivalPos="1742.80" arrivalSpeed="12.74" duration="1667.00" routeLength="19233.74" waitingTime="0.00" waitingCount="0" stopTime="0.00" timeLoss="184.98" rerouteNo="2" devices="tripinfo_veh18 routing_veh18 emissions_veh18" vType="authority@veh18" speedFactor="0.94" vaporized="">
        <emissions CO_abs="0" CO2_abs="0" HC_abs="0" PMx_abs="0" NOx_abs="0" fuel_abs="0" electricity_abs="0"/>
    </tripinfo>
    <tripinfo id="veh44" depart="410.00" departLane="-B_0" departPos="5.10" departSpeed="0.00" departDelay="0.00" arrival="1821.00" arrivalLane="D_0" arrivalPos="1742.80" arrivalSpeed="13.68" duration="1411.00" routeLength="19233.74" waitingTime="0.00" waitingCount="0" stopTime="0.00" timeLoss="80.84" rerouteNo="3" devices="tripinfo_veh44 routing_veh44 emissions_veh44" vType="authority@veh44" speedFactor="1.04" vaporized="">
        <emissions CO_abs="23948.335157" CO2_abs="3024273.264093" HC_abs="178.347769" PMx_abs="43.317418" NOx_abs="1138.490426" fuel_abs="1300.005064" electricity_abs="0"/>
    </tripinfo>
    <tripinfo id="veh29" depart="244.00" departLane="-H_0" departPos="5.10" departSpeed="0.00" departDelay="0.00" arrival="1822.00" arrivalLane="F_0" arrivalPos="1742.80" arrivalSpeed="11.71" duration="1578.00" routeLength="19233.74" waitingTime="0.00" waitingCount="0" stopTime="0.00" timeLoss="87.83" rerouteNo="3" devices="tripinfo_veh29 routing_veh29 emissions_veh29" vType="authority@veh29" speedFactor="0.93" vaporized="">
        <emissions CO_abs="0" CO2_abs="0" HC_abs="0" PMx_abs="0" NOx_abs="0" fuel_abs="0" electricity_abs="0"/>
    </tripinfo>
    <tripinfo id="veh27" depart="226.00" departLane="-A_0" departPos="5.10" departSpeed="0.00" departDelay="0.00" arrival="1823.00" arrivalLane="C_0" arrivalPos="1742.80" arrivalSpeed="12.68" duration="1597.00" routeLength="19233.74" waitingTime="0.00" waitingCount="0" stopTime="0.00" timeLoss="134.26" rerouteNo="2" devices="tripinfo_veh27 routing_veh27 emissions_veh27" vType="authority@veh27" speedFactor="0.95" vaporized="">
        <emissions CO_abs="0" CO2_abs="0" HC_abs="0" PMx_abs="0" NOx_abs="0" fuel_abs="0" electricity_abs="0"/>
    </tripinfo>
    <tripinfo id="veh45" depart="420.00" departLane="-B_0" departPos="5.10" departSpeed="0.00" departDelay="0.00" arrival="1823.00" arrivalLane="D_0" arrivalPos="1742.80" arrivalSpeed="14.28" duration="1403.00" routeLength="19233.74" waitingTime="0.00" waitingCount="0" stopTime="0.00" timeLoss="126.81" rerouteNo="3" devices="tripinfo_veh45 routing_veh45 emissions_veh45" vType="authority@veh45" speedFactor="1.09" vaporized="">
        <emissions CO_abs="30868.157562" CO2_abs="3340510.570937" HC_abs="217.411212" PMx_abs="52.022527" NOx_abs="1289.073149" fuel_abs="1435.938755" electricity_abs="0"/>
    </tripinfo>
    <tripinfo id="veh35" depart="286.00" departLane="-H_0" departPos="5.10" departSpeed="0.00" departDelay="0.00" arrival="1824.00" arrivalLane="F_0" arrivalPos="1742.80" arrivalSpeed="14.11" duration="1538.00" routeLength="19233.74" waitingTime="0.00" waitingCount="0" stopTime="0.00" timeLoss="176.84" rerouteNo="3" devices="tripinfo_veh35 routing_veh35 emissions_veh35" vType="authority@veh35" speedFactor="1.02" vaporized="">
        <emissions CO_abs="0" CO2_abs="0" HC_abs="0" PMx_abs="0" NOx_abs="0" fuel_abs="0" electricity_abs="0"/>
    </tripinfo>
    <tripinfo id="veh53" depart="489.00" departLane="-E_0" departPos="5.10" departSpeed="0.00" departDelay="0.00" arrival="1824.00" arrivalLane="G_0" arrivalPos="1742.80" arrivalSpeed="14.10" duration="1335.00" routeLength="19233.74" waitingTime="0.00" waitingCount="0" stopTime="0.00" timeLoss="68.22" rerouteNo="2" devices="tripinfo_veh53 routing_veh53 emissions_veh53" vType="authority@veh53" speedFactor="1.10" vaporized="">
        <emissions CO_abs="20773.257028" CO2_abs="2914444.683681" HC_abs="160.141141" PMx_abs="41.529954" NOx_abs="1086.681502" fuel_abs="1252.793515" electricity_abs="0"/>
    </tripinfo>
    <tripinfo id="veh23" depart="198.00" departLane="-D_0" departPos="5.10" departSpeed="0.00" departDelay="0.00" arrival="1861.00" arrivalLane="B_0" arrivalPos="1742.80" arrivalSpeed="11.35" duration="1663.00" routeLength="19233.74" waitingTime="0.00" waitingCount="0" stopTime="0.00" timeLoss="103.72" rerouteNo="5" devices="tripinfo_veh23 routing_veh23 emissions_veh23" vType="authority@veh23" speedFactor="0.89" vaporized="">
        <emissions CO_abs="30964.660666" CO2_abs="3067775.015101" HC_abs="211.475582" PMx_abs="41.956013" NOx_abs="1161.850356" fuel_abs="1318.711476" electricity_abs="0"/>
    </tripinfo>
    <tripinfo id="veh60" depart="524.00" departLane="-E_0" departPos="5.10" departSpeed="0.00" departDelay="0.00" arrival="1874.00" arrivalLane="G_0" arrivalPos="1742.80" arrivalSpeed="14.65" duration="1350.00" routeLength="19233.74" waitingTime="0.00" waitingCount="0" stopTime="0.00" timeLoss="67.48" rerouteNo="1" devices="tripinfo_veh60 routing_veh60 emissions_veh60" vType="authority@veh60" speedFactor="1.08" vaporized="">
        <emissions CO_abs="0" CO2_abs="0" HC_abs="0" PMx_abs="0" NOx_abs="0" fuel_abs="0" electricity_abs="0"/>
    </tripinfo>
    <tripinfo id="veh46" depart="422.00" departLane="-H_0" departPos="5.10" departSpeed="0.00" departDelay="0.00" arrival="1890.00" arrivalLane="F_0" arrivalPos="1742.80" arrivalSpeed="13.16" duration="1468.00" routeLength="19233.74" waitingTime="0.00" waitingCount="0" stopTime="0.00" timeLoss="76.33" rerouteNo="4" devices="tripinfo_veh46 routing_veh46 emissions_veh46" vType="authority@veh46" speedFactor="1.00" vaporized="">
        <emissions CO_abs="0" CO2_abs="0" HC_abs="0" PMx_abs="0" NOx_abs="0" fuel_abs="0" electricity_abs="0"/>
    </tripinfo>
    <tripinfo id="veh81" depart="714.00" departLane="-E_0" departPos="5.10" departSpeed="0.00" departDelay="0.00" arrival="1908.00" arrivalLane="G_0" arrivalPos="1742.80" arrivalSpeed="12.71" duration="1194.00" routeLength="15744.90" waitingTime="0.00" waitingCount="0" stopTime="0.00" timeLoss="58.32" rerouteNo="2" devices="tripinfo_veh81 routing_veh81 emissions_veh81" vType="authority@veh81" speedFactor="1.00" vaporized="">
        <emissions CO_abs="0" CO2_abs="0" HC_abs="0" PMx_abs="0" NOx_abs="0" fuel_abs="0" electricity_abs="0"/>
    </tripinfo>
    <tripinfo id="veh25" depart="218.00" departLane="-D_0" departPos="5.10" departSpeed="0.00" departDelay="0.00" arrival="1916.00" arrivalLane="B_0" arrivalPos="1742.80" arrivalSpeed="11.09" duration="1698.00" routeLength="19233.74" waitingTime="0.00" waitingCount="0" stopTime="0.00" timeLoss="107.31" rerouteNo="6" devices="tripinfo_veh25 routing_veh25 emissions_veh25" vType="authority@veh25" speedFactor="0.87" vaporized="">
        <emissions CO_abs="32409.020294" CO2_abs="3139253.606533" HC_abs="219.542483" PMx_abs="42.396360" NOx_abs="1187.194065" fuel_abs="1349.438467" electricity_abs="0"/>
    </tripinfo>
    <tripinfo id="veh52" depart="482.00" departLane="-F_0" departPos="5.10" departSpeed="0.00" departDelay="0.00" arrival="1923.00" arrivalLane="H_0" arrivalPos="1742.80" arrivalSpeed="12.96" duration="1441.00" routeLength="19233.74" waitingTime="0.00" waitingCount="0" stopTime="0.00" timeLoss="76.44" rerouteNo="5" devices="tripinfo_veh52 routing_veh52 emissions_veh52" vType="authority@veh52" speedFactor="1.02" vaporized="">
        <emissions CO_abs="22220.045816" CO2_abs="2851850.292269" HC_abs="166.719438" PMx_abs="39.740493" NOx_abs="1068.100857" fuel_abs="1225.889127" electricity_abs="0"/>
    </tripinfo>
    <tripinfo id="veh39" depart="349.00" departLane="-G_0" departPos="5.10" departSpeed="0.00" departDelay="0.00" arrival="1983.00" arrivalLane="E_0" arrivalPos="1742.80" arrivalSpeed="11.57" duration="1634.00" routeLength="19233.74" waitingTime="0.00" waitingCount="0" stopTime="0.00" timeLoss="92.89" rerouteNo="5" devices="tripinfo_veh39 routing_veh39 emissions_veh39" vType="authority@veh39" speedFactor="0.90" vaporized="">
        <emissions CO_abs="0" CO2_abs="0" HC_abs="0" PMx_abs="0" NOx_abs="0" fuel_abs="0" electricity_abs="0"/>
    </tripinfo>
    <tripinfo id="veh41" depart="365.00" departLane="-G_0" departPos="5.10" departSpeed="0.00" departDelay="0.00" arrival="1985.00" arrivalLane="E_0" arrivalPos="1742.80" arrivalSpeed="12.54" duration="1620.00" routeLength="19233.74" waitingTime="0.00" waitingCount="0" stopTime="0.00" timeLoss="169.40" rerouteNo="5" devices="tripinfo_veh41 routing_veh41 emissions_veh41" vType="authority@veh41" speedFactor="0.96" vaporized="">
        <emissions CO_abs="38213.206063" CO2_abs="3552394.435957" HC_abs="256.527199" PMx_abs="53.883905" NOx_abs="1380.739805" fuel_abs="1527.023417" electricity_abs="0"/>
    </tripinfo>
    <tripinfo id="veh62" depart="544.00" departLane="-F_0" departPos="5.10" departSpeed="0.00" departDelay="0.00" arrival="1987.00" arrivalLane="H_0" arrivalPos="1742.80" arrivalSpeed="14.07" duration="1443.00" routeLength="19233.74" waitingTime="0.00" waitingCount="0" stopTime="0.00" timeLoss="76.98" rerouteNo="4" devices="tripinfo_veh62 routing_veh62 emissions_veh62" vType="authority@veh62" speedFactor="1.02" vaporized="">
        <emissions CO_abs="0" CO2_abs="0" HC_abs="0" PMx_abs="0" NOx_abs="0" fuel_abs="0" electricity_abs="0"/>
    </tripinfo>
    <tripinfo id="veh68" depart="565.00" departLane="-B_0" departPos="5.10" departSpeed="0.00" departDelay="0.00" arrival="2004.00" arrivalLane="D_0" arrivalPos="1742.80" arrivalSpeed="14.04" duration="1439.00" routeLength="19233.74" waitingTime="0.00" waitingCount="0" stopTime="0.00" timeLoss="103.76" rerouteNo="4" devices="tripinfo_veh68 routing_veh68 emissions_veh68" vType="authority@veh68" speedFactor="1.04" vaporized="">
        <emissions CO_abs="0" CO2_abs="0" HC_abs="0" PMx_abs="0" NOx_abs="0" fuel_abs="0" electricity_abs="0"/>
    </tripinfo>
    <tripinfo id="veh24" depart="208.00" departLane="-C_0" departPos="5.10" departSpeed="0.00" departDelay="0.00" arrival="2005.00" arrivalLane="A_0" arrivalPos="1742.80" arrivalSpeed="11.43" duration="1797.00" routeLength="19233.74" waitingTime="0.00" waitingCount="0" stopTime="0.00" timeLoss="115.68" rerouteNo="4" devices="tripinfo_veh24 routing_veh24 emissions_veh24" vType="authority@veh24" speedFactor="0.83" vaporized="">
        <emissions CO_abs="0" CO2_abs="0" HC_abs="0" PMx_abs="0" NOx_abs="0" fuel_abs="0" electricity_abs="0"/>
    </tripinfo>
    <tripinfo id="veh26" depart="222.00" departLane="-C_0" departPos="5.10" departSpeed="0.00" departDelay="0.00" arrival="2006.00" arrivalLane="A_0" arrivalPos="1742.80" arrivalSpeed="12.07" duration="1784.00" routeLength="19233.74" waitingTime="0.00" waitingCount="0" stopTime="0.00" timeLoss="271.52" rerouteNo="4" devices="tripinfo_veh26 routing_veh26 emissions_veh26" vType="authority@veh26" speedFactor="0.92" vaporized="">
        <emissions CO_abs="48024.215238" CO2_abs="3801961.655156" HC_abs="306.797970" PMx_abs="58.594615" NOx_abs="1495.971523" fuel_abs="1634.305172" electricity_abs="0"/>
    </tripinfo>
    <tripinfo id="veh28" depart="227.00" departLane="-C_0" departPos="5.10" departSpeed="0.00" departDelay="0.00" arrival="2008.00" arrivalLane="A_0" arrivalPos="1742.80" arrivalSpeed="14.44" duration="1781.00" routeLength="19233.74" waitingTime="0.00" waitingCount="0" stopTime="0.00" timeLoss="554.75" rerouteNo="4" devices="tripinfo_veh28 routing_veh28 emissions_veh28" vType="authority@veh28" speedFactor="1.13" vaporized="">
        <emissions CO_abs="0" CO2_abs="0" HC_abs="0" PMx_abs="0" NOx_abs="0" fuel_abs="0" electricity_abs="0"/>
    </tripinfo>
    <tripinfo id="veh31" depart="265.00" departLane="-C_0" departPos="5.10" departSpeed="0.00" departDelay="0.00" arrival="2010.00" arrivalLane="A_0" arrivalPos="1742.80" arrivalSpeed="15.30" duration="1745.00" routeLength="19233.74" waitingTime="0.00" waitingCount="0" stopTime="0.00" timeLoss="542.43" rerouteNo="4" devices="tripinfo_veh31 routing_veh31 emissions_veh31" vType="authority@veh31" speedFactor="1.15" vaporized="">