<?xml version="1.0" encoding="UTF-8"?>

<!-- generated on 02/08/21 04:47:10 by Eclipse SUMO GUI Version 1.7.0
<configuration xmlns:xsi="http://www.w3.org/2001/XMLSchema-instance" xsi:noNamespaceSchemaLocation="http://sumo.dlr.de/xsd/sumoConfiguration.xsd">

    <input>
        <net-file value="casebase.net.xml"/>
        <route-files value="casebase.rou.xml"/>
        <additional-files value="casebase.add.xml"/>
    </input>

    <output>
        <emission-output value="emissionOutput.xml"/>
        <tripinfo-output value="tripinfo.xml"/>
    </output>

    <processing>
        <ignore-route-errors value="true"/>
    </processing>

    <traci_server>
        <remote-port value="51698"/>
    </traci_server>

</configuration>
-->

<tripinfos xmlns:xsi="http://www.w3.org/2001/XMLSchema-instance" xsi:noNamespaceSchemaLocation="http://sumo.dlr.de/xsd/tripinfo_file.xsd">
    <tripinfo id="veh3" depart="24.00" departLane="-H_0" departPos="5.10" departSpeed="0.00" departDelay="0.00" arrival="1121.00" arrivalLane="F_0" arrivalPos="1742.80" arrivalSpeed="13.87" duration="1097.00" routeLength="15744.90" waitingTime="0.00" waitingCount="0" stopTime="0.00" timeLoss="49.61" rerouteNo="1" devices="tripinfo_veh3 routing_veh3 emissions_veh3" vType="authority@veh3" speedFactor="1.08" vaporized="">
        <emissions CO_abs="0" CO2_abs="0" HC_abs="0" PMx_abs="0" NOx_abs="0" fuel_abs="0" electricity_abs="0"/>
    </tripinfo>
    <tripinfo id="veh0" depart="3.00" departLane="-D_0" departPos="5.10" departSpeed="0.00" departDelay="0.00" arrival="1142.00" arrivalLane="B_0" arrivalPos="1742.80" arrivalSpeed="14.44" duration="1139.00" routeLength="15744.90" waitingTime="0.00" waitingCount="0" stopTime="0.00" timeLoss="68.71" rerouteNo="1" devices="tripinfo_veh0 routing_veh0 emissions_veh0" vType="authority@veh0" speedFactor="1.06" vaporized="">
        <emissions CO_abs="19447.158444" CO2_abs="2436300.285993" HC_abs="144.306440" PMx_abs="35.341131" NOx_abs="918.918061" fuel_abs="1047.260292" electricity_abs="0"/>
    </tripinfo>
    <tripinfo id="veh6" depart="38.00" departLane="-E_0" departPos="5.10" departSpeed="0.00" departDelay="0.00" arrival="1176.00" arrivalLane="G_0" arrivalPos="1742.80" arrivalSpeed="14.34" duration="1138.00" routeLength="15744.90" waitingTime="0.00" waitingCount="0" stopTime="0.00" timeLoss="53.18" rerouteNo="1" devices="tripinfo_veh6 routing_veh6 emissions_veh6" vType="authority@veh6" speedFactor="1.05" vaporized="">
        <emissions CO_abs="0" CO2_abs="0" HC_abs="0" PMx_abs="0" NOx_abs="0" fuel_abs="0" electricity_abs="0"/>
    </tripinfo>
    <tripinfo id="veh1" depart="7.00" departLane="-F_0" departPos="5.10" departSpeed="0.00" departDelay="0.00" arrival="1282.00" arrivalLane="H_0" arrivalPos="1742.80" arrivalSpeed="12.55" duration="1275.00" routeLength="15744.90" waitingTime="0.00" waitingCount="0" stopTime="0.00" timeLoss="66.03" rerouteNo="1" devices="tripinfo_veh1 routing_veh1 emissions_veh1" vType="authority@veh1" speedFactor="0.94" vaporized="">
        <emissions CO_abs="0" CO2_abs="0" HC_abs="0" PMx_abs="0" NOx_abs="0" fuel_abs="0" electricity_abs="0"/>
    </tripinfo>
    <tripinfo id="veh2" depart="10.00" departLane="-F_0" departPos="5.10" departSpeed="0.00" departDelay="3.00" arrival="1283.00" arrivalLane="H_0" arrivalPos="1742.80" arrivalSpeed="14.01" duration="1273.00" routeLength="15744.90" waitingTime="0.00" waitingCount="0" stopTime="0.00" timeLoss="150.89" rerouteNo="1" devices="tripinfo_veh2 routing_veh2 emissions_veh2" vType="authority@veh2" speedFactor="1.01" vaporized="">
        <emissions CO_abs="29049.332909" CO2_abs="2844209.819760" HC_abs="198.531002" PMx_abs="43.537995" NOx_abs="1104.728326" fuel_abs="1222.603363" electricity_abs="0"/>
    </tripinfo>
    <tripinfo id="veh4" depart="34.00" departLane="-F_0" departPos="5.10" departSpeed="0.00" departDelay="0.00" arrival="1285.00" arrivalLane="H_0" arrivalPos="1742.80" arrivalSpeed="14.06" duration="1251.00" routeLength="15744.90" waitingTime="0.00" waitingCount="0" stopTime="0.00" timeLoss="150.35" rerouteNo="1" devices="tripinfo_veh4 routing_veh4 emissions_veh4" vType="authority@veh4" speedFactor="1.03" vaporized="">
        <emissions CO_abs="0" CO2_abs="0" HC_abs="0" PMx_abs="0" NOx_abs="0" fuel_abs="0" electricity_abs="0"/>
    </tripinfo>
    <tripinfo id="veh8" depart="66.00" departLane="-E_0" departPos="5.10" departSpeed="0.00" departDelay="0.00" arrival="1341.00" arrivalLane="G_0" arrivalPos="1742.80" arrivalSpeed="12.88" duration="1275.00" routeLength="15744.90" waitingTime="0.00" waitingCount="0" stopTime="0.00" timeLoss="65.42" rerouteNo="1" devices="tripinfo_veh8 routing_veh8 emissions_veh8" vType="authority@veh8" speedFactor="0.94" vaporized="">
        <emissions CO_abs="0" CO2_abs="0" HC_abs="0" PMx_abs="0" NOx_abs="0" fuel_abs="0" electricity_abs="0"/>
    </tripinfo>
    <tripinfo id="veh11" depart="103.00" departLane="-E_0" departPos="5.10" departSpeed="0.00" departDelay="0.00" arrival="1342.00" arrivalLane="G_0" arrivalPos="1742.80" arrivalSpeed="13.89" duration="1239.00" routeLength="15744.90" waitingTime="0.00" waitingCount="0" stopTime="0.00" timeLoss="134.17" rerouteNo="1" devices="tripinfo_veh11 routing_veh11 emissions_veh11" vType="authority@veh11" speedFactor="1.03" vaporized="">
        <emissions CO_abs="0" CO2_abs="0" HC_abs="0" PMx_abs="0" NOx_abs="0" fuel_abs="0" electricity_abs="0"/>
    </tripinfo>
    <tripinfo id="veh7" depart="39.00" departLane="-B_0" departPos="5.10" departSpeed="0.00" departDelay="0.00" arrival="1402.00" arrivalLane="D_0" arrivalPos="1742.80" arrivalSpeed="11.30" duration="1363.00" routeLength="15744.90" waitingTime="0.00" waitingCount="0" stopTime="0.00" timeLoss="83.30" rerouteNo="1" devices="tripinfo_veh7 routing_veh7 emissions_veh7" vType="authority@veh7" speedFactor="0.89" vaporized="">
        <emissions CO_abs="26188.163886" CO2_abs="2589829.890161" HC_abs="178.745356" PMx_abs="35.442255" NOx_abs="981.201338" fuel_abs="1113.262325" electricity_abs="0"/>
    </tripinfo>
    <tripinfo id="veh12" depart="105.00" departLane="-B_0" departPos="5.10" departSpeed="0.00" departDelay="0.00" arrival="1404.00" arrivalLane="D_0" arrivalPos="1742.80" arrivalSpeed="14.20" duration="1299.00" routeLength="15744.90" waitingTime="0.00" waitingCount="0" stopTime="0.00" timeLoss="215.61" rerouteNo="1" devices="tripinfo_veh12 routing_veh12 emissions_veh12" vType="authority@veh12" speedFactor="1.05" vaporized="">
        <emissions CO_abs="31137.710275" CO2_abs="2897752.985687" HC_abs="208.831760" PMx_abs="44.600136" NOx_abs="1128.306258" fuel_abs="1245.620004" electricity_abs="0"/>
    </tripinfo>
    <tripinfo id="veh13" depart="108.00" departLane="-B_0" departPos="5.10" departSpeed="0.00" departDelay="1.00" arrival="1405.00" arrivalLane="D_0" arrivalPos="1742.80" arrivalSpeed="14.97" duration="1297.00" routeLength="15744.90" waitingTime="0.00" waitingCount="0" stopTime="0.00" timeLoss="287.28" rerouteNo="1" devices="tripinfo_veh13 routing_veh13 emissions_veh13" vType="authority@veh13" speedFactor="1.12" vaporized="">
        <emissions CO_abs="39665.234630" CO2_abs="3316760.352657" HC_abs="258.334994" PMx_abs="55.711122" NOx_abs="1326.083945" fuel_abs="1425.729243" electricity_abs="0"/>
    </tripinfo>
    <tripinfo id="veh30" depart="246.00" departLane="-E_0" departPos="5.10" departSpeed="0.00" departDelay="0.00" arrival="1485.00" arrivalLane="G_0" arrivalPos="1742.80" arrivalSpeed="15.88" duration="1239.00" routeLength="19233.74" waitingTime="0.00" waitingCount="0" stopTime="0.00" timeLoss="61.72" rerouteNo="5" devices="tripinfo_veh30 routing_veh30 emissions_veh30" vType="authority@veh30" speedFactor="1.18" vaporized="">
        <emissions CO_abs="0" CO2_abs="0" HC_abs="0" PMx_abs="0" NOx_abs="0" fuel_abs="0" electricity_abs="0"/>
    </tripinfo>
    <tripinfo id="veh33" depart="282.00" departLane="-E_0" departPos="5.10" departSpeed="0.00" departDelay="0.00" arrival="1528.00" arrivalLane="G_0" arrivalPos="1742.80" arrivalSpeed="15.91" duration="1246.00" routeLength="19233.74" waitingTime="0.00" waitingCount="0" stopTime="0.00" timeLoss="62.37" rerouteNo="5" devices="tripinfo_veh33 routing_veh33 emissions_veh33" vType="authority@veh33" speedFactor="1.17" vaporized="">
        <emissions CO_abs="19198.416015" CO2_abs="2819919.779279" HC_abs="150.390545" PMx_abs="41.502824" NOx_abs="1050.184838" fuel_abs="1212.159418" electricity_abs="0"/>
    </tripinfo>
    <tripinfo id="veh14" depart="117.00" departLane="-C_0" departPos="5.10" departSpeed="0.00" departDelay="0.00" arrival="1604.00" arrivalLane="A_0" arrivalPos="1742.80" arrivalSpeed="12.78" duration="1487.00" routeLength="19233.74" waitingTime="0.00" waitingCount="0" stopTime="0.00" timeLoss="87.12" rerouteNo="3" devices="tripinfo_veh14 routing_veh14 emissions_veh14" vType="authority@veh14" speedFactor="0.99" vaporized="">
        <emissions CO_abs="0" CO2_abs="0" HC_abs="0" PMx_abs="0" NOx_abs="0" fuel_abs="0" electricity_abs="0"/>
    </tripinfo>
    <tripinfo id="veh21" depart="175.00" departLane="-D_0" departPos="5.10" departSpeed="0.00" departDelay="0.00" arrival="1637.00" arrivalLane="B_0" arrivalPos="1742.80" arrivalSpeed="13.98" duration="1462.00" routeLength="19233.74" waitingTime="0.00" waitingCount="0" stopTime="0.00" timeLoss="87.99" rerouteNo="7" devices="tripinfo_veh21 routing_veh21 emissions_veh21" vType="authority@veh21" speedFactor="1.01" vaporized="">
        <emissions CO_abs="24882.220553" CO2_abs="3052480.697038" HC_abs="183.537354" PMx_abs="42.925150" NOx_abs="1147.995729" fuel_abs="1312.131731" electricity_abs="0"/>
    </tripinfo>
    <tripinfo id="veh38" depart="345.00" departLane="-E_0" departPos="5.10" departSpeed="0.00" departDelay="0.00" arrival="1671.00" arrivalLane="G_0" arrivalPos="1742.80" arrivalSpeed="15.06" duration="1326.00" routeLength="19233.74" waitingTime="0.00" waitingCount="0" stopTime="0.00" timeLoss="66.92" rerouteNo="5" devices="tripinfo_veh38 routing_veh38 emissions_veh38" vType="authority@veh38" speedFactor="1.10" vaporized="">
        <emissions CO_abs="20281.995755" CO2_abs="2865916.798564" HC_abs="156.712977" PMx_abs="40.982221" NOx_abs="1068.654873" fuel_abs="1231.933198" electricity_abs="0"/>
    </tripinfo>
    <tripinfo id="veh17" depart="127.00" departLane="-B_0" departPos="5.10" departSpeed="0.00" departDelay="0.00" arrival="1696.00" arrivalLane="D_0" arrivalPos="1742.80" arrivalSpeed="12.07" duration="1569.00" routeLength="19233.74" waitingTime="0.00" waitingCount="0" stopTime="0.00" timeLoss="95.12" rerouteNo="4" devices="tripinfo_veh17 routing_veh17 emissions_veh17" vType="authority@veh17" speedFactor="0.94" vaporized="">
        <emissions CO_abs="26896.240576" CO2_abs="2976424.087047" HC_abs="191.082286" PMx_abs="40.920563" NOx_abs="1121.950093" fuel_abs="1279.441110" electricity_abs="0"/>
    </tripinfo>
    <tripinfo id="veh22" depart="185.00" departLane="-C_0" departPos="5.10" departSpeed="0.00" departDelay="0.00" arrival="1702.00" arrivalLane="A_0" arrivalPos="1742.80" arrivalSpeed="13.48" duration="1517.00" routeLength="19233.74" waitingTime="0.00" waitingCount="0" stopTime="0.00" timeLoss="93.55" rerouteNo="4" devices="tripinfo_veh22 routing_veh22 emissions_veh22" vType="authority@veh22" speedFactor="0.98" vaporized="">
        <emissions CO_abs="26799.324365" CO2_abs="3042106.617791" HC_abs="192.323527" PMx_abs="42.811244" NOx_abs="1149.590954" fuel_abs="1307.673549" electricity_abs="0"/>
    </tripinfo>
    <tripinfo id="veh15" depart="122.00" departLane="-H_0" departPos="5.10" departSpeed="0.00" departDelay="0.00" arrival="1710.00" arrivalLane="F_0" arrivalPos="1742.80" arrivalSpeed="12.59" duration="1588.00" routeLength="19233.74" waitingTime="0.00" waitingCount="0" stopTime="0.00" timeLoss="91.05" rerouteNo="2" devices="tripinfo_veh15 routing_veh15 emissions_veh15" vType="authority@veh15" speedFactor="0.93" vaporized="">
        <emissions CO_abs="0" CO2_abs="0" HC_abs="0" PMx_abs="0" NOx_abs="0" fuel_abs="0" electricity_abs="0"/>
    </tripinfo>
    <tripinfo id="veh35" depart="286.00" departLane="-H_0" departPos="5.10" departSpeed="0.00" departDelay="0.00" arrival="1749.00" arrivalLane="F_0" arrivalPos="1742.80" arrivalSpeed="13.71" duration="1463.00" routeLength="19233.74" waitingTime="0.00" waitingCount="0" stopTime="0.00" timeLoss="102.14" rerouteNo="8" devices="tripinfo_veh35 routing_veh35 emissions_veh35" vType="authority@veh35" speedFactor="1.02" vaporized="">
        <emissions CO_abs="0" CO2_abs="0" HC_abs="0" PMx_abs="0" NOx_abs="0" fuel_abs="0" electricity_abs="0"/>
    </tripinfo>
    <tripinfo id="veh34" depart="285.00" departLane="-G_0" departPos="5.10" departSpeed="0.00" departDelay="0.00" arrival="1759.00" arrivalLane="E_0" arrivalPos="1742.80" arrivalSpeed="12.94" duration="1474.00" routeLength="19233.74" waitingTime="0.00" waitingCount="0" stopTime="0.00" timeLoss="78.32" rerouteNo="5" devices="tripinfo_veh34 routing_veh34 emissions_veh34" vType="authority@veh34" speedFactor="0.99" vaporized="">
        <emissions CO_abs="0" CO2_abs="0" HC_abs="0" PMx_abs="0" NOx_abs="0" fuel_abs="0" electricity_abs="0"/>
    </tripinfo>
    <tripinfo id="veh16" depart="123.00" departLane="-G_0" departPos="5.10" departSpeed="0.00" departDelay="0.00" arrival="1802.00" arrivalLane="E_0" arrivalPos="1742.80" arrivalSpeed="10.96" duration="1679.00" routeLength="19233.74" waitingTime="0.00" waitingCount="0" stopTime="0.00" timeLoss="98.79" rerouteNo="2" devices="tripinfo_veh16 routing_veh16 emissions_veh16" vType="authority@veh16" speedFactor="0.88" vaporized="">
        <emissions CO_abs="30721.848093" CO2_abs="3070556.500194" HC_abs="210.270583" PMx_abs="41.127193" NOx_abs="1157.586591" fuel_abs="1319.908186" electricity_abs="0"/>
    </tripinfo>
    <tripinfo id="veh20" depart="170.00" departLane="-G_0" departPos="5.10" departSpeed="0.00" departDelay="0.00" arrival="1804.00" arrivalLane="E_0" arrivalPos="1742.80" arrivalSpeed="13.64" duration="1634.00" routeLength="19233.74" waitingTime="0.00" waitingCount="0" stopTime="0.00" timeLoss="270.12" rerouteNo="2" devices="tripinfo_veh20 routing_veh20 emissions_veh20" vType="authority@veh20" speedFactor="1.02" vaporized="">
        <emissions CO_abs="38720.264539" CO2_abs="3541217.801115" HC_abs="258.302773" PMx_abs="53.403861" NOx_abs="1375.064757" fuel_abs="1522.219963" electricity_abs="0"/>
    </tripinfo>
    <tripinfo id="veh32" depart="277.00" departLane="-G_0" departPos="5.10" departSpeed="0.00" departDelay="0.00" arrival="1805.00" arrivalLane="E_0" arrivalPos="1742.80" arrivalSpeed="13.01" duration="1528.00" routeLength="19233.74" waitingTime="0.00" waitingCount="0" stopTime="0.00" timeLoss="146.91" rerouteNo="4" devices="tripinfo_veh32 routing_veh32 emissions_veh32" vType="authority@veh32" speedFactor="1.01" vaporized="">
        <emissions CO_abs="0" CO2_abs="0" HC_abs="0" PMx_abs="0" NOx_abs="0" fuel_abs="0" electricity_abs="0"/>
    </tripinfo>
    <tripinfo id="veh9" depart="85.00" departLane="-A_0" departPos="5.10" departSpeed="0.00" departDelay="0.00" arrival="1813.00" arrivalLane="C_0" arrivalPos="1742.80" arrivalSpeed="10.73" duration="1728.00" routeLength="19233.74" waitingTime="0.00" waitingCount="0" stopTime="0.00" timeLoss="108.21" rerouteNo="3" devices="tripinfo_veh9 routing_veh9 emissions_veh9" vType="authority@veh9" speedFactor="0.86" vaporized="">
        <emissions CO_abs="33112.464770" CO2_abs="3098278.579329" HC_abs="221.726942" PMx_abs="41.764461" NOx_abs="1173.156895" fuel_abs="1331.825835" electricity_abs="0"/>
    </tripinfo>
    <tripinfo id="veh5" depart="37.00" departLane="-F_0" departPos="5.10" departSpeed="0.00" departDelay="2.00" arrival="1814.00" arrivalLane="H_0" arrivalPos="1742.80" arrivalSpeed="11.26" duration="1777.00" routeLength="19233.74" waitingTime="0.00" waitingCount="0" stopTime="0.00" timeLoss="107.08" rerouteNo="3" devices="tripinfo_veh5 routing_veh5 emissions_veh5" vType="authority@veh5" speedFactor="0.83" vaporized="">
        <emissions CO_abs="34158.947758" CO2_abs="3108108.582158" HC_abs="226.452503" PMx_abs="40.843934" NOx_abs="1172.241349" fuel_abs="1336.053548" electricity_abs="0"/>
    </tripinfo>
    <tripinfo id="veh10" depart="93.00" departLane="-A_0" departPos="5.10" departSpeed="0.00" departDelay="0.00" arrival="1815.00" arrivalLane="C_0" arrivalPos="1742.80" arrivalSpeed="13.90" duration="1722.00" routeLength="19233.74" waitingTime="0.00" waitingCount="0" stopTime="0.00" timeLoss="449.95" rerouteNo="3" devices="tripinfo_veh10 routing_veh10 emissions_veh10" vType="authority@veh10" speedFactor="1.09" vaporized="">
        <emissions CO_abs="0" CO2_abs="0" HC_abs="0" PMx_abs="0" NOx_abs="0" fuel_abs="0" electricity_abs="0"/>
    </tripinfo>
    <tripinfo id="veh19" depart="166.00" departLane="-F_0" departPos="5.10" departSpeed="0.00" departDelay="0.00" arrival="1816.00" arrivalLane="H_0" arrivalPos="1742.80" arrivalSpeed="14.24" duration="1650.00" routeLength="19233.74" waitingTime="0.00" waitingCount="0" stopTime="0.00" timeLoss="451.54" rerouteNo="3" devices="tripinfo_veh19 routing_veh19 emissions_veh19" vType="authority@veh19" speedFactor="1.16" vaporized="">
        <emissions CO_abs="0" CO2_abs="0" HC_abs="0" PMx_abs="0" NOx_abs="0" fuel_abs="0" electricity_abs="0"/>
    </tripinfo>
    <tripinfo id="veh18" depart="154.00" departLane="-A_0" departPos="5.10" departSpeed="0.00" departDelay="0.00" arrival="1817.00" arrivalLane="C_0" arrivalPos="1742.80" arrivalSpeed="12.27" duration="1663.00" routeLength="19233.74" waitingTime="0.00" waitingCount="0" stopTime="0.00" timeLoss="180.99" rerouteNo="3" devices="tripinfo_veh18 routing_veh18 emissions_veh18" vType="authority@veh18" speedFactor="0.94" vaporized="">
        <emissions CO_abs="0" CO2_abs="0" HC_abs="0" PMx_abs="0" NOx_abs="0" fuel_abs="0" electricity_abs="0"/>
    </tripinfo>
    <tripinfo id="veh37" depart="313.00" departLane="-F_0" departPos="5.10" departSpeed="0.00" departDelay="0.00" arrival="1817.00" arrivalLane="H_0" arrivalPos="1742.80" arrivalSpeed="15.05" duration="1504.00" routeLength="19233.74" waitingTime="0.00" waitingCount="0" stopTime="0.00" timeLoss="327.95" rerouteNo="3" devices="tripinfo_veh37 routing_veh37 emissions_veh37" vType="authority@veh37" speedFactor="1.18" vaporized="">
        <emissions CO_abs="0" CO2_abs="0" HC_abs="0" PMx_abs="0" NOx_abs="0" fuel_abs="0" electricity_abs="0"/>
    </tripinfo>
    <tripinfo id="veh27" depart="226.00" departLane="-A_0" departPos="5.10" departSpeed="0.00" departDelay="0.00" arrival="1819.00" arrivalLane="C_0" arrivalPos="1742.80" arrivalSpeed="12.93" duration="1593.00" routeLength="19233.74" waitingTime="0.00" waitingCount="0" stopTime="0.00" timeLoss="129.72" rerouteNo="4" devices="tripinfo_veh27 routing_veh27 emissions_veh27" vType="authority@veh27" speedFactor="0.95" vaporized="">
        <emissions CO_abs="0" CO2_abs="0" HC_abs="0" PMx_abs="0" NOx_abs="0" fuel_abs="0" electricity_abs="0"/>
    </tripinfo>
    <tripinfo id="veh42" depart="378.00" departLane="-A_0" departPos="5.10" departSpeed="0.00" departDelay="0.00" arrival="1820.00" arrivalLane="C_0" arrivalPos="1742.80" arrivalSpeed="14.80" duration="1442.00" routeLength="19233.74" waitingTime="0.00" waitingCount="0" stopTime="0.00" timeLoss="170.48" rerouteNo="6" devices="tripinfo_veh42 routing_veh42 emissions_veh42" vType="authority@veh42" speedFactor="1.09" vaporized="">
        <emissions CO_abs="31952.136190" CO2_abs="3362118.677602" HC_abs="222.560285" PMx_abs="51.958101" NOx_abs="1297.242861" fuel_abs="1445.228221" electricity_abs="0"/>
    </tripinfo>
    <tripinfo id="veh29" depart="244.00" departLane="-H_0" departPos="5.10" departSpeed="0.00" departDelay="0.00" arrival="1823.00" arrivalLane="F_0" arrivalPos="1742.80" arrivalSpeed="11.84" duration="1579.00" routeLength="19233.74" waitingTime="0.00" waitingCount="0" stopTime="0.00" timeLoss="89.17" rerouteNo="5" devices="tripinfo_veh29 routing_veh29 emissions_veh29" vType="authority@veh29" speedFactor="0.93" vaporized="">
        <emissions CO_abs="0" CO2_abs="0" HC_abs="0" PMx_abs="0" NOx_abs="0" fuel_abs="0" electricity_abs="0"/>
    </tripinfo>
    <tripinfo id="veh53" depart="489.00" departLane="-E_0" departPos="5.10" departSpeed="0.00" departDelay="0.00" arrival="1823.00" arrivalLane="G_0" arrivalPos="1742.80" arrivalSpeed="14.90" duration="1334.00" routeLength="19233.74" waitingTime="0.00" waitingCount="0" stopTime="0.00" timeLoss="67.11" rerouteNo="5" devices="tripinfo_veh53 routing_veh53 emissions_veh53" vType="authority@veh53" speedFactor="1.10" vaporized="">
        <emissions CO_abs="20293.751151" CO2_abs="2860088.515270" HC_abs="156.885447" PMx_abs="40.747762" NOx_abs="1066.176034" fuel_abs="1229.428133" electricity_abs="0"/>
    </tripinfo>
    <tripinfo id="veh44" depart="410.00" departLane="-B_0" departPos="5.10" departSpeed="0.00" departDelay="0.00" arrival="1826.00" arrivalLane="D_0" arrivalPos="1742.80" arrivalSpeed="13.98" duration="1416.00" routeLength="19233.74" waitingTime="0.00" waitingCount="0" stopTime="0.00" timeLoss="85.61" rerouteNo="5" devices="tripinfo_veh44 routing_veh44 emissions_veh44" vType="authority@veh44" speedFactor="1.04" vaporized="">
        <emissions CO_abs="23880.951022" CO2_abs="3003080.094215" HC_abs="177.557599" PMx_abs="42.887392" NOx_abs="1129.948229" fuel_abs="1290.895290" electricity_abs="0"/>
    </tripinfo>
    <tripinfo id="veh45" depart="420.00" departLane="-B_0" departPos="5.10" departSpeed="0.00" departDelay="0.00" arrival="1828.00" arrivalLane="D_0" arrivalPos="1742.80" arrivalSpeed="14.59" duration="1408.00" routeLength="19233.74" waitingTime="0.00" waitingCount="0" stopTime="0.00" timeLoss="131.99" rerouteNo="5" devices="tripinfo_veh45 routing_veh45 emissions_veh45" vType="authority@veh45" speedFactor="1.09" vaporized="">
        <emissions CO_abs="31558.346760" CO2_abs="3394241.797851" HC_abs="222.203275" PMx_abs="53.072678" NOx_abs="1312.081619" fuel_abs="1459.035270" electricity_abs="0"/>
    </tripinfo>
    <tripinfo id="veh75" depart="627.00" departLane="-E_0" departPos="5.10" departSpeed="0.00" departDelay="0.00" arrival="1839.00" arrivalLane="G_0" arrivalPos="1742.80" arrivalSpeed="12.85" duration="1212.00" routeLength="15744.90" waitingTime="0.00" waitingCount="0" stopTime="0.00" timeLoss="60.94" rerouteNo="6" devices="tripinfo_veh75 routing_veh75 emissions_veh75" vType="authority@veh75" speedFactor="0.98" vaporized="">
        <emissions CO_abs="0" CO2_abs="0" HC_abs="0" PMx_abs="0" NOx_abs="0" fuel_abs="0" electricity_abs="0"/>
    </tripinfo>
    <tripinfo id="veh23" depart="198.00" departLane="-D_0" departPos="5.10" departSpeed="0.00" departDelay="0.00" arrival="1862.00" arrivalLane="B_0" arrivalPos="1742.80" arrivalSpeed="11.57" duration="1664.00" routeLength="19233.74" waitingTime="0.00" waitingCount="0" stopTime="0.00" timeLoss="104.37" rerouteNo="5" devices="tripinfo_veh23 routing_veh23 emissions_veh23" vType="authority@veh23" speedFactor="0.89" vaporized="">
        <emissions CO_abs="30829.293188" CO2_abs="3089167.396844" HC_abs="211.291536" PMx_abs="41.857575" NOx_abs="1167.056321" fuel_abs="1327.907524" electricity_abs="0"/>
    </tripinfo>
    <tripinfo id="veh60" depart="524.00" departLane="-E_0" departPos="5.10" departSpeed="0.00" departDelay="0.00" arrival="1874.00" arrivalLane="G_0" arrivalPos="1742.80" arrivalSpeed="14.89" duration="1350.00" routeLength="19233.74" waitingTime="0.00" waitingCount="0" stopTime="0.00" timeLoss="67.76" rerouteNo="4" devices="tripinfo_veh60 routing_veh60 emissions_veh60" vType="authority@veh60" speedFactor="1.08" vaporized="">
        <emissions CO_abs="0" CO2_abs="0" HC_abs="0" PMx_abs="0" NOx_abs="0" fuel_abs="0" electricity_abs="0"/>
    </tripinfo>
    <tripinfo id="veh46" depart="422.00" departLane="-H_0" departPos="5.10" departSpeed="0.00" departDelay="0.00" arrival="1891.00" arrivalLane="F_0" arrivalPos="1742.80" arrivalSpeed="13.31" duration="1469.00" routeLength="19233.74" waitingTime="0.00" waitingCount="0" stopTime="0.00" timeLoss="77.23" rerouteNo="8" devices="tripinfo_veh46 routing_veh46 emissions_veh46" vType="authority@veh46" speedFactor="1.00" vaporized="">
        <emissions CO_abs="0" CO2_abs="0" HC_abs="0" PMx_abs="0" NOx_abs="0" fuel_abs="0" electricity_abs="0"/>
    </tripinfo>
    <tripinfo id="veh74" depart="623.00" departLane="-F_0" departPos="5.10" departSpeed="0.00" departDelay="0.00" arrival="1900.00" arrivalLane="H_0" arrivalPos="1742.80" arrivalSpeed="12.47" duration="1277.00" routeLength="15744.90" waitingTime="0.00" waitingCount="0" stopTime="0.00" timeLoss="89.96" rerouteNo="6" devices="tripinfo_veh74 routing_veh74 emissions_veh74" vType="authority@veh74" speedFactor="0.96" vaporized="">
        <emissions CO_abs="0" CO2_abs="0" HC_abs="0" PMx_abs="0" NOx_abs="0" fuel_abs="0" electricity_abs="0"/>
    </tripinfo>
    <tripinfo id="veh25" depart="218.00" departLane="-D_0" departPos="5.10" departSpeed="0.00" departDelay="0.00" arrival="1914.00" arrivalLane="B_0" arrivalPos="1742.80" arrivalSpeed="11.23" duration="1696.00" routeLength="19233.74" waitingTime="0.00" waitingCount="0" stopTime="0.00" timeLoss="105.58" rerouteNo="8" devices="tripinfo_veh25 routing_veh25 emissions_veh25" vType="authority@veh25" speedFactor="0.87" vaporized="">
        <emissions CO_abs="32005.803162" CO2_abs="3118089.155605" HC_abs="217.180700" PMx_abs="41.852624" NOx_abs="1177.287196" fuel_abs="1340.340984" electricity_abs="0"/>
    </tripinfo>
    <tripinfo id="veh52" depart="482.00" departLane="-F_0" departPos="5.10" departSpeed="0.00" departDelay="0.00" arrival="1923.00" arrivalLane="H_0" arrivalPos="1742.80" arrivalSpeed="13.07" duration="1441.00" routeLength="19233.74" waitingTime="0.00" waitingCount="0" stopTime="0.00" timeLoss="76.39" rerouteNo="6" devices="tripinfo_veh52 routing_veh52 emissions_veh52" vType="authority@veh52" speedFactor="1.02" vaporized="">
        <emissions CO_abs="22450.052906" CO2_abs="2889650.497615" HC_abs="168.528198" PMx_abs="40.153359" NOx_abs="1081.379034" fuel_abs="1242.137944" electricity_abs="0"/>
    </tripinfo>
    <tripinfo id="veh65" depart="558.00" departLane="-B_0" departPos="5.10" departSpeed="0.00" departDelay="0.00" arrival="1927.00" arrivalLane="D_0" arrivalPos="1742.80" arrivalSpeed="11.39" duration="1369.00" routeLength="15744.90" waitingTime="0.00" waitingCount="0" stopTime="0.00" timeLoss="83.63" rerouteNo="9" devices="tripinfo_veh65 routing_veh65 emissions_veh65" vType="authority@veh65" speedFactor="0.88" vaporized="">
        <emissions CO_abs="25626.611424" CO2_abs="2564472.297832" HC_abs="175.509800" PMx_abs="34.541110" NOx_abs="967.907670" fuel_abs="1102.362726" electricity_abs="0"/>
    </tripinfo>
    <tripinfo id="veh39" depart="349.00" departLane="-G_0" departPos="5.10" departSpeed="0.00" departDelay="0.00" arrival="1983.00" arrivalLane="E_0" arrivalPos="1742.80" arrivalSpeed="11.78" duration="1634.00" routeLength="19233.74" waitingTime="0.00" waitingCount="0" stopTime="0.00" timeLoss="93.44" rerouteNo="8" devices="tripinfo_veh39 routing_veh39 emissions_veh39" vType="authority@veh39" speedFactor="0.90" vaporized="">
        <emissions CO_abs="0" CO2_abs="0" HC_abs="0" PMx_abs="0" NOx_abs="0" fuel_abs="0" electricity_abs="0"/>
    </tripinfo>
    <tripinfo id="veh41" depart="365.00" departLane="-G_0" departPos="5.10" departSpeed="0.00" departDelay="0.00" arrival="1985.00" arrivalLane="E_0" arrivalPos="1742.80" arrivalSpeed="12.53" duration="1620.00" routeLength="19233.74" waitingTime="0.00" waitingCount="0" stopTime="0.00" timeLoss="170.37" rerouteNo="8" devices="tripinfo_veh41 routing_veh41 emissions_veh41" vType="authority@veh41" speedFactor="0.96" vaporized="">
        <emissions CO_abs="37513.023321" CO2_abs="3486782.530646" HC_abs="251.789780" PMx_abs="52.698534" NOx_abs="1354.002994" fuel_abs="1498.819946" electricity_abs="0"/>
    </tripinfo>
    <tripinfo id="veh68" depart="565.00" departLane="-B_0" departPos="5.10" departSpeed="0.00" departDelay="0.00" arrival="2001.00" arrivalLane="D_0" arrivalPos="1742.80" arrivalSpeed="13.54" duration="1436.00" routeLength="19233.74" waitingTime="0.00" waitingCount="0" stopTime="0.00" timeLoss="100.89" rerouteNo="3" devices="tripinfo_veh68 routing_veh68 emissions_veh68" vType="authority@veh68" speedFactor="1.04" vaporized="">
        <emissions CO_abs="0" CO2_abs="0" HC_abs="0" PMx_abs="0" NOx_abs="0" fuel_abs="0" electricity_abs="0"/>
    </tripinfo>
    <tripinfo id="veh62" depart="544.00" departLane="-F_0" departPos="5.10" departSpeed="0.00" departDelay="0.00" arrival="2002.00" arrivalLane="H_0" arrivalPos="1742.80" arrivalSpeed="13.96" duration="1458.00" routeLength="19233.74" waitingTime="0.00" waitingCount="0" stopTime="0.00" timeLoss="91.29" rerouteNo="6" devices="tripinfo_veh62 routing_veh62 emissions_veh62" vType="authority@veh62" speedFactor="1.02" vaporized="">
        <emissions CO_abs="0" CO2_abs="0" HC_abs="0" PMx_abs="0" NOx_abs="0" fuel_abs="0" electricity_abs="0"/>
    </tripinfo>
    <tripinfo id="veh69" depart="570.00" departLane="-D_0" departPos="5.10" departSpeed="0.00" departDelay="0.00" arrival="2015.00" arrivalLane="B_0" arrivalPos="1742.80" arrivalSpeed="13.29" duration="1445.00" routeLength="19233.74" waitingTime="0.00" waitingCount="0" stopTime="0.00" timeLoss="87.39" rerouteNo="8" devices="tripinfo_veh69 routing_veh69 emissions_veh69" vType="authority@veh69" speedFactor="1.02" vaporized="">
        <emissions CO_abs="0" CO2_abs="0" HC_abs="0" PMx_abs="0" NOx_abs="0" fuel_abs="0" electricity_abs="0"/>
    </tripinfo>
    <tripinfo id="veh24" depart="208.00" departLane="-C_0" departPos="5.10" departSpeed="0.00" departDelay="0.00" arrival="2017.00" arrivalLane="A_0" arrivalPos="1742.80" arrivalSpeed="10.69" duration="1809.00" routeLength="19233.74" waitingTime="8.00" waitingCount="1" stopTime="0.00" timeLoss="128.12" rerouteNo="5" devices="tripinfo_veh24 routing_veh24 emissions_veh24" vType="authority@veh24" speedFactor="0.83" vaporized="">