<?xml version="1.0" encoding="UTF-8"?>

<!-- generated on 11/23/20 02:18:26 by Eclipse SUMO GUI Version 1.7.0
<configuration xmlns:xsi="http://www.w3.org/2001/XMLSchema-instance" xsi:noNamespaceSchemaLocation="http://sumo.dlr.de/xsd/sumoConfiguration.xsd">

    <input>
        <net-file value="C:\Users\Sandrus\Documents\Research\SUMO\SUMO_DEMOS\TraCI_ini\demo.net.xml"/>
        <route-files value="C:\Users\Sandrus\Documents\Research\SUMO\SUMO_DEMOS\TraCI_ini\demo.rou.xml"/>
        <additional-files value="C:\Users\Sandrus\Documents\Research\SUMO\SUMO_DEMOS\TraCI_ini\demo.add.xml"/>
    </input>

    <output>
        <tripinfo-output value="tripinfo.xml"/>
    </output>

    <traci_server>
        <remote-port value="56710"/>
    </traci_server>

</configuration>
-->

<tripinfos xmlns:xsi="http://www.w3.org/2001/XMLSchema-instance" xsi:noNamespaceSchemaLocation="http://sumo.dlr.de/xsd/tripinfo_file.xsd">
