<?xml version="1.0" encoding="UTF-8"?>

<!-- generated on 11/23/20 02:04:03 by Eclipse SUMO GUI Version 1.7.0
<configuration xmlns:xsi="http://www.w3.org/2001/XMLSchema-instance" xsi:noNamespaceSchemaLocation="http://sumo.dlr.de/xsd/sumoConfiguration.xsd">

    <input>
        <net-file value="C:\Users\Sandrus\Documents\Research\SUMO\SUMO_DEMOS\TraCI_ini\demo.net.xml"/>
        <route-files value="C:\Users\Sandrus\Documents\Research\SUMO\SUMO_DEMOS\TraCI_ini\demo.rou.xml"/>
        <additional-files value="C:\Users\Sandrus\Documents\Research\SUMO\SUMO_DEMOS\TraCI_ini\demo.add.xml"/>
    </input>

    <output>
        <tripinfo-output value="tripinfo.xml"/>
    </output>

    <traci_server>
        <remote-port value="56540"/>
    </traci_server>

</configuration>
-->

<tripinfos xmlns:xsi="http://www.w3.org/2001/XMLSchema-instance" xsi:noNamespaceSchemaLocation="http://sumo.dlr.de/xsd/tripinfo_file.xsd">
    <tripinfo id="1" depart="3.00" departLane="e1_0" departPos="5.10" departSpeed="0.00" departDelay="0.00" arrival="169.00" arrivalLane="e9_0" arrivalPos="93.40" arrivalSpeed="7.70" duration="166.00" routeLength="1325.92" waitingTime="0.00" waitingCount="0" stopTime="0.00" timeLoss="32.76" rerouteNo="5" devices="tripinfo_1" vType="car" speedFactor="0.94" vaporized=""/>
    <tripinfo id="3" depart="10.00" departLane="e1_0" departPos="5.10" departSpeed="0.00" departDelay="1.00" arrival="175.00" arrivalLane="e9_0" arrivalPos="93.40" arrivalSpeed="8.34" duration="165.00" routeLength="1325.92" waitingTime="0.00" waitingCount="0" stopTime="0.00" timeLoss="32.35" rerouteNo="5" devices="tripinfo_3" vType="car" speedFactor="1.08" vaporized=""/>
</tripinfos>
