<?xml version="1.0" encoding="UTF-8"?>

<!-- generated on 02/05/21 14:27:26 by Eclipse SUMO GUI Version 1.7.0
<configuration xmlns:xsi="http://www.w3.org/2001/XMLSchema-instance" xsi:noNamespaceSchemaLocation="http://sumo.dlr.de/xsd/sumoConfiguration.xsd">

    <input>
        <net-file value="case0.net.xml"/>
        <route-files value="case0.rou.xml"/>
        <additional-files value="case0.add.xml"/>
    </input>

    <output>
        <emission-output value="emissionOutput.xml"/>
        <tripinfo-output value="tripinfo.xml"/>
    </output>

    <processing>
        <ignore-route-errors value="true"/>
    </processing>

    <traci_server>
        <remote-port value="60368"/>
    </traci_server>

</configuration>
-->

<emission-export xmlns:xsi="http://www.w3.org/2001/XMLSchema-instance" xsi:noNamespaceSchemaLocation="http://sumo.dlr.de/xsd/emission_file.xsd">
    <timestep time="0.00"/>
    <timestep time="1.00"/>
    <timestep time="2.00"/>
    <timestep time="3.00"/>
    <timestep time="4.00"/>
    <timestep time="5.00"/>
    <timestep time="6.00"/>
    <timestep time="7.00"/>
    <timestep time="8.00"/>
    <timestep time="9.00"/>
    <timestep time="10.00">
        <vehicle id="veh1" eclass="Zero/default" CO2="0.00" CO="0.00" HC="0.00" NOx="0.00" PMx="0.00" fuel="0.00" electricity="0.00" noise="0.00" route="!veh1!var#1" type="eVehicle" waiting="0.00" lane="-A_0" pos="5.10" speed="0.00" angle="90.00" x="-1744.90" y="-5251.60"/>
    </timestep>
    <timestep time="11.00">
        <vehicle id="veh1" eclass="Zero/default" CO2="0.00" CO="0.00" HC="0.00" NOx="0.00" PMx="0.00" fuel="0.00" electricity="0.00" noise="0.00" route="!veh1!var#1" type="eVehicle" waiting="0.00" lane="-A_0" pos="6.42" speed="1.32" angle="90.00" x="-1743.58" y="-5251.60"/>
    </timestep>
    <timestep time="12.00">
        <vehicle id="veh1" eclass="Zero/default" CO2="0.00" CO="0.00" HC="0.00" NOx="0.00" PMx="0.00" fuel="0.00" electricity="0.00" noise="0.00" route="!veh1!var#1" type="eVehicle" waiting="0.00" lane="-A_0" pos="9.62" speed="3.20" angle="90.00" x="-1740.38" y="-5251.60"/>
    </timestep>
    <timestep time="13.00">
        <vehicle id="veh1" eclass="Zero/default" CO2="0.00" CO="0.00" HC="0.00" NOx="0.00" PMx="0.00" fuel="0.00" electricity="0.00" noise="0.00" route="!veh1!var#1" type="eVehicle" waiting="0.00" lane="-A_0" pos="14.84" speed="5.22" angle="90.00" x="-1735.16" y="-5251.60"/>
    </timestep>
    <timestep time="14.00">
        <vehicle id="veh1" eclass="Zero/default" CO2="0.00" CO="0.00" HC="0.00" NOx="0.00" PMx="0.00" fuel="0.00" electricity="0.00" noise="0.00" route="!veh1!var#1" type="eVehicle" waiting="0.00" lane="-A_0" pos="21.74" speed="6.90" angle="90.00" x="-1728.26" y="-5251.60"/>
    </timestep>
    <timestep time="15.00">
        <vehicle id="veh1" eclass="Zero/default" CO2="0.00" CO="0.00" HC="0.00" NOx="0.00" PMx="0.00" fuel="0.00" electricity="0.00" noise="0.00" route="!veh1!var#1" type="eVehicle" waiting="0.00" lane="-A_0" pos="30.93" speed="9.19" angle="90.00" x="-1719.07" y="-5251.60"/>
    </timestep>
    <timestep time="16.00">
        <vehicle id="veh1" eclass="Zero/default" CO2="0.00" CO="0.00" HC="0.00" NOx="0.00" PMx="0.00" fuel="0.00" electricity="0.00" noise="0.00" route="!veh1!var#1" type="eVehicle" waiting="0.00" lane="-A_0" pos="42.29" speed="11.36" angle="90.00" x="-1707.71" y="-5251.60"/>
    </timestep>
    <timestep time="17.00">
        <vehicle id="veh1" eclass="Zero/default" CO2="0.00" CO="0.00" HC="0.00" NOx="0.00" PMx="0.00" fuel="0.00" electricity="0.00" noise="0.00" route="!veh1!var#1" type="eVehicle" waiting="0.00" lane="-A_0" pos="56.14" speed="13.84" angle="90.00" x="-1693.86" y="-5251.60"/>
    </timestep>
    <timestep time="18.00">
        <vehicle id="veh1" eclass="Zero/default" CO2="0.00" CO="0.00" HC="0.00" NOx="0.00" PMx="0.00" fuel="0.00" electricity="0.00" noise="0.00" route="!veh1!var#1" type="eVehicle" waiting="0.00" lane="-A_0" pos="69.99" speed="13.85" angle="90.00" x="-1680.01" y="-5251.60"/>
    </timestep>
    <timestep time="19.00">
        <vehicle id="veh1" eclass="Zero/default" CO2="0.00" CO="0.00" HC="0.00" NOx="0.00" PMx="0.00" fuel="0.00" electricity="0.00" noise="0.00" route="!veh1!var#1" type="eVehicle" waiting="0.00" lane="-A_0" pos="84.29" speed="14.31" angle="90.00" x="-1665.71" y="-5251.60"/>
    </timestep>
    <timestep time="20.00">
        <vehicle id="veh1" eclass="Zero/default" CO2="0.00" CO="0.00" HC="0.00" NOx="0.00" PMx="0.00" fuel="0.00" electricity="0.00" noise="0.00" route="!veh1!var#1" type="eVehicle" waiting="0.00" lane="-A_0" pos="98.71" speed="14.41" angle="90.00" x="-1651.29" y="-5251.60"/>
    </timestep>
    <timestep time="21.00">
        <vehicle id="veh1" eclass="Zero/default" CO2="0.00" CO="0.00" HC="0.00" NOx="0.00" PMx="0.00" fuel="0.00" electricity="0.00" noise="0.00" route="!veh1!var#1" type="eVehicle" waiting="0.00" lane="-A_0" pos="113.32" speed="14.62" angle="90.00" x="-1636.68" y="-5251.60"/>
    </timestep>
    <timestep time="22.00">
        <vehicle id="veh1" eclass="Zero/default" CO2="0.00" CO="0.00" HC="0.00" NOx="0.00" PMx="0.00" fuel="0.00" electricity="0.00" noise="0.00" route="!veh1!var#1" type="eVehicle" waiting="0.00" lane="-A_0" pos="128.02" speed="14.70" angle="90.00" x="-1621.98" y="-5251.60"/>
    </timestep>
    <timestep time="23.00">
        <vehicle id="veh1" eclass="Zero/default" CO2="0.00" CO="0.00" HC="0.00" NOx="0.00" PMx="0.00" fuel="0.00" electricity="0.00" noise="0.00" route="!veh1!var#1" type="eVehicle" waiting="0.00" lane="-A_0" pos="141.87" speed="13.85" angle="90.00" x="-1608.13" y="-5251.60"/>
    </timestep>
    <timestep time="24.00">
        <vehicle id="veh1" eclass="Zero/default" CO2="0.00" CO="0.00" HC="0.00" NOx="0.00" PMx="0.00" fuel="0.00" electricity="0.00" noise="0.00" route="!veh1!var#1" type="eVehicle" waiting="0.00" lane="-A_0" pos="155.78" speed="13.91" angle="90.00" x="-1594.22" y="-5251.60"/>
    </timestep>
    <timestep time="25.00">
        <vehicle id="veh1" eclass="Zero/default" CO2="0.00" CO="0.00" HC="0.00" NOx="0.00" PMx="0.00" fuel="0.00" electricity="0.00" noise="0.00" route="!veh1!var#1" type="eVehicle" waiting="0.00" lane="-A_0" pos="169.37" speed="13.59" angle="90.00" x="-1580.63" y="-5251.60"/>
    </timestep>
    <timestep time="26.00">
        <vehicle id="veh1" eclass="Zero/default" CO2="0.00" CO="0.00" HC="0.00" NOx="0.00" PMx="0.00" fuel="0.00" electricity="0.00" noise="0.00" route="!veh1!var#1" type="eVehicle" waiting="0.00" lane="-A_0" pos="183.21" speed="13.85" angle="90.00" x="-1566.79" y="-5251.60"/>
    </timestep>
    <timestep time="27.00">
        <vehicle id="veh1" eclass="Zero/default" CO2="0.00" CO="0.00" HC="0.00" NOx="0.00" PMx="0.00" fuel="0.00" electricity="0.00" noise="0.00" route="!veh1!var#1" type="eVehicle" waiting="0.00" lane="-A_0" pos="197.00" speed="13.79" angle="90.00" x="-1553.00" y="-5251.60"/>
    </timestep>
    <timestep time="28.00">
        <vehicle id="veh1" eclass="Zero/default" CO2="0.00" CO="0.00" HC="0.00" NOx="0.00" PMx="0.00" fuel="0.00" electricity="0.00" noise="0.00" route="!veh1!var#1" type="eVehicle" waiting="0.00" lane="-A_0" pos="210.68" speed="13.68" angle="90.00" x="-1539.32" y="-5251.60"/>
    </timestep>
    <timestep time="29.00">
        <vehicle id="veh1" eclass="Zero/default" CO2="0.00" CO="0.00" HC="0.00" NOx="0.00" PMx="0.00" fuel="0.00" electricity="0.00" noise="0.00" route="!veh1!var#1" type="eVehicle" waiting="0.00" lane="-A_0" pos="225.04" speed="14.36" angle="90.00" x="-1524.96" y="-5251.60"/>
    </timestep>
    <timestep time="30.00">
        <vehicle id="veh1" eclass="Zero/default" CO2="0.00" CO="0.00" HC="0.00" NOx="0.00" PMx="0.00" fuel="0.00" electricity="0.00" noise="0.00" route="!veh1!var#1" type="eVehicle" waiting="0.00" lane="-A_0" pos="238.85" speed="13.80" angle="90.00" x="-1511.15" y="-5251.60"/>
    </timestep>
    <timestep time="31.00">
        <vehicle id="veh1" eclass="Zero/default" CO2="0.00" CO="0.00" HC="0.00" NOx="0.00" PMx="0.00" fuel="0.00" electricity="0.00" noise="0.00" route="!veh1!var#1" type="eVehicle" waiting="0.00" lane="-A_0" pos="253.06" speed="14.21" angle="90.00" x="-1496.94" y="-5251.60"/>
    </timestep>
    <timestep time="32.00">
        <vehicle id="veh1" eclass="Zero/default" CO2="0.00" CO="0.00" HC="0.00" NOx="0.00" PMx="0.00" fuel="0.00" electricity="0.00" noise="0.00" route="!veh1!var#1" type="eVehicle" waiting="0.00" lane="-A_0" pos="267.63" speed="14.57" angle="90.00" x="-1482.37" y="-5251.60"/>
    </timestep>
    <timestep time="33.00">
        <vehicle id="veh1" eclass="Zero/default" CO2="0.00" CO="0.00" HC="0.00" NOx="0.00" PMx="0.00" fuel="0.00" electricity="0.00" noise="0.00" route="!veh1!var#1" type="eVehicle" waiting="0.00" lane="-A_0" pos="281.63" speed="13.99" angle="90.00" x="-1468.37" y="-5251.60"/>
    </timestep>
    <timestep time="34.00">
        <vehicle id="veh1" eclass="Zero/default" CO2="0.00" CO="0.00" HC="0.00" NOx="0.00" PMx="0.00" fuel="0.00" electricity="0.00" noise="0.00" route="!veh1!var#1" type="eVehicle" waiting="0.00" lane="-A_0" pos="295.23" speed="13.60" angle="90.00" x="-1454.77" y="-5251.60"/>
    </timestep>
    <timestep time="35.00">
        <vehicle id="veh1" eclass="Zero/default" CO2="0.00" CO="0.00" HC="0.00" NOx="0.00" PMx="0.00" fuel="0.00" electricity="0.00" noise="0.00" route="!veh1!var#1" type="eVehicle" waiting="0.00" lane="-A_0" pos="309.79" speed="14.56" angle="90.00" x="-1440.21" y="-5251.60"/>
    </timestep>
    <timestep time="36.00">
        <vehicle id="veh1" eclass="Zero/default" CO2="0.00" CO="0.00" HC="0.00" NOx="0.00" PMx="0.00" fuel="0.00" electricity="0.00" noise="0.00" route="!veh1!var#1" type="eVehicle" waiting="0.00" lane="-A_0" pos="323.22" speed="13.43" angle="90.00" x="-1426.78" y="-5251.60"/>
    </timestep>
    <timestep time="37.00">
        <vehicle id="veh1" eclass="Zero/default" CO2="0.00" CO="0.00" HC="0.00" NOx="0.00" PMx="0.00" fuel="0.00" electricity="0.00" noise="0.00" route="!veh1!var#1" type="eVehicle" waiting="0.00" lane="-A_0" pos="337.35" speed="14.13" angle="90.00" x="-1412.65" y="-5251.60"/>
    </timestep>
    <timestep time="38.00">
        <vehicle id="veh1" eclass="Zero/default" CO2="0.00" CO="0.00" HC="0.00" NOx="0.00" PMx="0.00" fuel="0.00" electricity="0.00" noise="0.00" route="!veh1!var#1" type="eVehicle" waiting="0.00" lane="-A_0" pos="351.01" speed="13.67" angle="90.00" x="-1398.99" y="-5251.60"/>
    </timestep>
    <timestep time="39.00">
        <vehicle id="veh1" eclass="Zero/default" CO2="0.00" CO="0.00" HC="0.00" NOx="0.00" PMx="0.00" fuel="0.00" electricity="0.00" noise="0.00" route="!veh1!var#1" type="eVehicle" waiting="0.00" lane="-A_0" pos="365.16" speed="14.15" angle="90.00" x="-1384.84" y="-5251.60"/>
    </timestep>
    <timestep time="40.00">
        <vehicle id="veh1" eclass="Zero/default" CO2="0.00" CO="0.00" HC="0.00" NOx="0.00" PMx="0.00" fuel="0.00" electricity="0.00" noise="0.00" route="!veh1!var#1" type="eVehicle" waiting="0.00" lane="-A_0" pos="379.55" speed="14.39" angle="90.00" x="-1370.45" y="-5251.60"/>
    </timestep>
    <timestep time="41.00">
        <vehicle id="veh1" eclass="Zero/default" CO2="0.00" CO="0.00" HC="0.00" NOx="0.00" PMx="0.00" fuel="0.00" electricity="0.00" noise="0.00" route="!veh1!var#1" type="eVehicle" waiting="0.00" lane="-A_0" pos="394.21" speed="14.66" angle="90.00" x="-1355.79" y="-5251.60"/>
    </timestep>
    <timestep time="42.00">
        <vehicle id="veh1" eclass="Zero/default" CO2="0.00" CO="0.00" HC="0.00" NOx="0.00" PMx="0.00" fuel="0.00" electricity="0.00" noise="0.00" route="!veh1!var#1" type="eVehicle" waiting="0.00" lane="-A_0" pos="407.67" speed="13.46" angle="90.00" x="-1342.33" y="-5251.60"/>
    </timestep>
    <timestep time="43.00">
        <vehicle id="veh1" eclass="Zero/default" CO2="0.00" CO="0.00" HC="0.00" NOx="0.00" PMx="0.00" fuel="0.00" electricity="0.00" noise="0.00" route="!veh1!var#1" type="eVehicle" waiting="0.00" lane="-A_0" pos="421.73" speed="14.07" angle="90.00" x="-1328.27" y="-5251.60"/>
    </timestep>
    <timestep time="44.00">
        <vehicle id="veh1" eclass="Zero/default" CO2="0.00" CO="0.00" HC="0.00" NOx="0.00" PMx="0.00" fuel="0.00" electricity="0.00" noise="0.00" route="!veh1!var#1" type="eVehicle" waiting="0.00" lane="-A_0" pos="436.36" speed="14.63" angle="90.00" x="-1313.64" y="-5251.60"/>
    </timestep>
    <timestep time="45.00">
        <vehicle id="veh1" eclass="Zero/default" CO2="0.00" CO="0.00" HC="0.00" NOx="0.00" PMx="0.00" fuel="0.00" electricity="0.00" noise="0.00" route="!veh1!var#1" type="eVehicle" waiting="0.00" lane="-A_0" pos="449.88" speed="13.52" angle="90.00" x="-1300.12" y="-5251.60"/>
    </timestep>
    <timestep time="46.00">
        <vehicle id="veh1" eclass="Zero/default" CO2="0.00" CO="0.00" HC="0.00" NOx="0.00" PMx="0.00" fuel="0.00" electricity="0.00" noise="0.00" route="!veh1!var#1" type="eVehicle" waiting="0.00" lane="-A_0" pos="463.42" speed="13.54" angle="90.00" x="-1286.58" y="-5251.60"/>
    </timestep>
    <timestep time="47.00">
        <vehicle id="veh1" eclass="Zero/default" CO2="0.00" CO="0.00" HC="0.00" NOx="0.00" PMx="0.00" fuel="0.00" electricity="0.00" noise="0.00" route="!veh1!var#1" type="eVehicle" waiting="0.00" lane="-A_0" pos="476.95" speed="13.54" angle="90.00" x="-1273.05" y="-5251.60"/>
    </timestep>
    <timestep time="48.00">
        <vehicle id="veh1" eclass="Zero/default" CO2="0.00" CO="0.00" HC="0.00" NOx="0.00" PMx="0.00" fuel="0.00" electricity="0.00" noise="0.00" route="!veh1!var#1" type="eVehicle" waiting="0.00" lane="-A_0" pos="491.56" speed="14.61" angle="90.00" x="-1258.44" y="-5251.60"/>
    </timestep>
    <timestep time="49.00">
        <vehicle id="veh1" eclass="Zero/default" CO2="0.00" CO="0.00" HC="0.00" NOx="0.00" PMx="0.00" fuel="0.00" electricity="0.00" noise="0.00" route="!veh1!var#1" type="eVehicle" waiting="0.00" lane="-A_0" pos="505.89" speed="14.32" angle="90.00" x="-1244.11" y="-5251.60"/>
    </timestep>
    <timestep time="50.00">
        <vehicle id="veh1" eclass="Zero/default" CO2="0.00" CO="0.00" HC="0.00" NOx="0.00" PMx="0.00" fuel="0.00" electricity="0.00" noise="0.00" route="!veh1!var#1" type="eVehicle" waiting="0.00" lane="-A_0" pos="520.38" speed="14.49" angle="90.00" x="-1229.62" y="-5251.60"/>
    </timestep>
    <timestep time="51.00">
        <vehicle id="veh1" eclass="Zero/default" CO2="0.00" CO="0.00" HC="0.00" NOx="0.00" PMx="0.00" fuel="0.00" electricity="0.00" noise="0.00" route="!veh1!var#1" type="eVehicle" waiting="0.00" lane="-A_0" pos="534.60" speed="14.22" angle="90.00" x="-1215.40" y="-5251.60"/>
    </timestep>
    <timestep time="52.00">
        <vehicle id="veh1" eclass="Zero/default" CO2="0.00" CO="0.00" HC="0.00" NOx="0.00" PMx="0.00" fuel="0.00" electricity="0.00" noise="0.00" route="!veh1!var#1" type="eVehicle" waiting="0.00" lane="-A_0" pos="549.31" speed="14.70" angle="90.00" x="-1200.69" y="-5251.60"/>
    </timestep>
    <timestep time="53.00">
        <vehicle id="veh1" eclass="Zero/default" CO2="0.00" CO="0.00" HC="0.00" NOx="0.00" PMx="0.00" fuel="0.00" electricity="0.00" noise="0.00" route="!veh1!var#1" type="eVehicle" waiting="0.00" lane="-A_0" pos="563.11" speed="13.81" angle="90.00" x="-1186.89" y="-5251.60"/>
    </timestep>
    <timestep time="54.00">
        <vehicle id="veh1" eclass="Zero/default" CO2="0.00" CO="0.00" HC="0.00" NOx="0.00" PMx="0.00" fuel="0.00" electricity="0.00" noise="0.00" route="!veh1!var#1" type="eVehicle" waiting="0.00" lane="-A_0" pos="576.62" speed="13.50" angle="90.00" x="-1173.38" y="-5251.60"/>
    </timestep>
    <timestep time="55.00">
        <vehicle id="veh1" eclass="Zero/default" CO2="0.00" CO="0.00" HC="0.00" NOx="0.00" PMx="0.00" fuel="0.00" electricity="0.00" noise="0.00" route="!veh1!var#1" type="eVehicle" waiting="0.00" lane="-A_0" pos="590.15" speed="13.53" angle="90.00" x="-1159.85" y="-5251.60"/>
    </timestep>
    <timestep time="56.00">
        <vehicle id="veh1" eclass="Zero/default" CO2="0.00" CO="0.00" HC="0.00" NOx="0.00" PMx="0.00" fuel="0.00" electricity="0.00" noise="0.00" route="!veh1!var#1" type="eVehicle" waiting="0.00" lane="-A_0" pos="604.59" speed="14.44" angle="90.00" x="-1145.41" y="-5251.60"/>
    </timestep>
    <timestep time="57.00">
        <vehicle id="veh1" eclass="Zero/default" CO2="0.00" CO="0.00" HC="0.00" NOx="0.00" PMx="0.00" fuel="0.00" electricity="0.00" noise="0.00" route="!veh1!var#1" type="eVehicle" waiting="0.00" lane="-A_0" pos="618.55" speed="13.95" angle="90.00" x="-1131.45" y="-5251.60"/>
    </timestep>
    <timestep time="58.00">
        <vehicle id="veh1" eclass="Zero/default" CO2="0.00" CO="0.00" HC="0.00" NOx="0.00" PMx="0.00" fuel="0.00" electricity="0.00" noise="0.00" route="!veh1!var#1" type="eVehicle" waiting="0.00" lane="-A_0" pos="632.31" speed="13.76" angle="90.00" x="-1117.69" y="-5251.60"/>
    </timestep>
    <timestep time="59.00">
        <vehicle id="veh1" eclass="Zero/default" CO2="0.00" CO="0.00" HC="0.00" NOx="0.00" PMx="0.00" fuel="0.00" electricity="0.00" noise="0.00" route="!veh1!var#1" type="eVehicle" waiting="0.00" lane="-A_0" pos="646.95" speed="14.64" angle="90.00" x="-1103.05" y="-5251.60"/>
    </timestep>
    <timestep time="60.00">
        <vehicle id="veh1" eclass="Zero/default" CO2="0.00" CO="0.00" HC="0.00" NOx="0.00" PMx="0.00" fuel="0.00" electricity="0.00" noise="0.00" route="!veh1!var#1" type="eVehicle" waiting="0.00" lane="-A_0" pos="661.02" speed="14.08" angle="90.00" x="-1088.98" y="-5251.60"/>
    </timestep>
    <timestep time="61.00">
        <vehicle id="veh1" eclass="Zero/default" CO2="0.00" CO="0.00" HC="0.00" NOx="0.00" PMx="0.00" fuel="0.00" electricity="0.00" noise="0.00" route="!veh1!var#1" type="eVehicle" waiting="0.00" lane="-A_0" pos="674.81" speed="13.78" angle="90.00" x="-1075.19" y="-5251.60"/>
    </timestep>
    <timestep time="62.00">
        <vehicle id="veh1" eclass="Zero/default" CO2="0.00" CO="0.00" HC="0.00" NOx="0.00" PMx="0.00" fuel="0.00" electricity="0.00" noise="0.00" route="!veh1!var#1" type="eVehicle" waiting="0.00" lane="-A_0" pos="688.35" speed="13.54" angle="90.00" x="-1061.65" y="-5251.60"/>
    </timestep>
    <timestep time="63.00">
        <vehicle id="veh1" eclass="Zero/default" CO2="0.00" CO="0.00" HC="0.00" NOx="0.00" PMx="0.00" fuel="0.00" electricity="0.00" noise="0.00" route="!veh1!var#1" type="eVehicle" waiting="0.00" lane="-A_0" pos="702.30" speed="13.95" angle="90.00" x="-1047.70" y="-5251.60"/>
    </timestep>
    <timestep time="64.00">
        <vehicle id="veh1" eclass="Zero/default" CO2="0.00" CO="0.00" HC="0.00" NOx="0.00" PMx="0.00" fuel="0.00" electricity="0.00" noise="0.00" route="!veh1!var#1" type="eVehicle" waiting="0.00" lane="-A_0" pos="715.92" speed="13.62" angle="90.00" x="-1034.08" y="-5251.60"/>
    </timestep>
    <timestep time="65.00">
        <vehicle id="veh1" eclass="Zero/default" CO2="0.00" CO="0.00" HC="0.00" NOx="0.00" PMx="0.00" fuel="0.00" electricity="0.00" noise="0.00" route="!veh1!var#1" type="eVehicle" waiting="0.00" lane="-A_0" pos="729.60" speed="13.68" angle="90.00" x="-1020.40" y="-5251.60"/>
    </timestep>
    <timestep time="66.00">
        <vehicle id="veh1" eclass="Zero/default" CO2="0.00" CO="0.00" HC="0.00" NOx="0.00" PMx="0.00" fuel="0.00" electricity="0.00" noise="0.00" route="!veh1!var#1" type="eVehicle" waiting="0.00" lane="-A_0" pos="744.16" speed="14.56" angle="90.00" x="-1005.84" y="-5251.60"/>
    </timestep>
    <timestep time="67.00">
        <vehicle id="veh1" eclass="Zero/default" CO2="0.00" CO="0.00" HC="0.00" NOx="0.00" PMx="0.00" fuel="0.00" electricity="0.00" noise="0.00" route="!veh1!var#1" type="eVehicle" waiting="0.00" lane="-A_0" pos="758.68" speed="14.52" angle="90.00" x="-991.32" y="-5251.60"/>
    </timestep>
    <timestep time="68.00">
        <vehicle id="veh1" eclass="Zero/default" CO2="0.00" CO="0.00" HC="0.00" NOx="0.00" PMx="0.00" fuel="0.00" electricity="0.00" noise="0.00" route="!veh1!var#1" type="eVehicle" waiting="0.00" lane="-A_0" pos="772.45" speed="13.77" angle="90.00" x="-977.55" y="-5251.60"/>
    </timestep>
    <timestep time="69.00">
        <vehicle id="veh1" eclass="Zero/default" CO2="0.00" CO="0.00" HC="0.00" NOx="0.00" PMx="0.00" fuel="0.00" electricity="0.00" noise="0.00" route="!veh1!var#1" type="eVehicle" waiting="0.00" lane="-A_0" pos="786.74" speed="14.29" angle="90.00" x="-963.26" y="-5251.60"/>
    </timestep>
    <timestep time="70.00">
        <vehicle id="veh1" eclass="Zero/default" CO2="0.00" CO="0.00" HC="0.00" NOx="0.00" PMx="0.00" fuel="0.00" electricity="0.00" noise="0.00" route="!veh1!var#1" type="eVehicle" waiting="0.00" lane="-A_0" pos="800.92" speed="14.18" angle="90.00" x="-949.08" y="-5251.60"/>
        <vehicle id="veh2" eclass="HBEFA3/PC_G_EU4" CO2="2624.72" CO="164.78" HC="0.81" NOx="1.20" PMx="0.07" fuel="1.13" electricity="0.00" noise="55.94" route="!veh2!var#1" type="normalVehicle" waiting="0.00" lane="-E_0" pos="5.10" speed="0.00" angle="180.00" x="5248.40" y="1744.90"/>
    </timestep>
    <timestep time="71.00">
        <vehicle id="veh1" eclass="Zero/default" CO2="0.00" CO="0.00" HC="0.00" NOx="0.00" PMx="0.00" fuel="0.00" electricity="0.00" noise="0.00" route="!veh1!var#1" type="eVehicle" waiting="0.00" lane="-A_0" pos="815.08" speed="14.16" angle="90.00" x="-934.92" y="-5251.60"/>
        <vehicle id="veh2" eclass="HBEFA3/PC_G_EU4" CO2="3579.96" CO="148.48" HC="0.76" NOx="1.60" PMx="0.08" fuel="1.54" electricity="0.00" noise="66.19" route="!veh2!var#1" type="normalVehicle" waiting="0.00" lane="-E_0" pos="7.24" speed="2.14" angle="180.00" x="5248.40" y="1742.76"/>
    </timestep>
    <timestep time="72.00">
        <vehicle id="veh1" eclass="Zero/default" CO2="0.00" CO="0.00" HC="0.00" NOx="0.00" PMx="0.00" fuel="0.00" electricity="0.00" noise="0.00" route="!veh1!var#1" type="eVehicle" waiting="0.00" lane="-A_0" pos="828.57" speed="13.49" angle="90.00" x="-921.43" y="-5251.60"/>
        <vehicle id="veh2" eclass="HBEFA3/PC_G_EU4" CO2="3565.32" CO="126.65" HC="0.66" NOx="1.55" PMx="0.07" fuel="1.53" electricity="0.00" noise="63.55" route="!veh2!var#1" type="normalVehicle" waiting="0.00" lane="-E_0" pos="10.79" speed="3.55" angle="180.00" x="5248.40" y="1739.21"/>
    </timestep>
    <timestep time="73.00">
        <vehicle id="veh1" eclass="Zero/default" CO2="0.00" CO="0.00" HC="0.00" NOx="0.00" PMx="0.00" fuel="0.00" electricity="0.00" noise="0.00" route="!veh1!var#1" type="eVehicle" waiting="0.00" lane="-A_0" pos="842.67" speed="14.10" angle="90.00" x="-907.33" y="-5251.60"/>
        <vehicle id="veh2" eclass="HBEFA3/PC_G_EU4" CO2="4204.17" CO="118.20" HC="0.64" NOx="1.81" PMx="0.08" fuel="1.81" electricity="0.00" noise="64.80" route="!veh2!var#1" type="normalVehicle" waiting="0.00" lane="-E_0" pos="15.88" speed="5.09" angle="180.00" x="5248.40" y="1734.12"/>
    </timestep>
    <timestep time="74.00">
        <vehicle id="veh1" eclass="Zero/default" CO2="0.00" CO="0.00" HC="0.00" NOx="0.00" PMx="0.00" fuel="0.00" electricity="0.00" noise="0.00" route="!veh1!var#1" type="eVehicle" waiting="0.00" lane="-A_0" pos="856.21" speed="13.54" angle="90.00" x="-893.79" y="-5251.60"/>
        <vehicle id="veh2" eclass="HBEFA3/PC_G_EU4" CO2="4951.26" CO="112.86" HC="0.63" NOx="2.12" PMx="0.10" fuel="2.13" electricity="0.00" noise="65.94" route="!veh2!var#1" type="normalVehicle" waiting="0.00" lane="-E_0" pos="22.59" speed="6.71" angle="180.00" x="5248.40" y="1727.41"/>
    </timestep>
    <timestep time="75.00">
        <vehicle id="veh1" eclass="Zero/default" CO2="0.00" CO="0.00" HC="0.00" NOx="0.00" PMx="0.00" fuel="0.00" electricity="0.00" noise="0.00" route="!veh1!var#1" type="eVehicle" waiting="0.00" lane="-A_0" pos="870.15" speed="13.93" angle="90.00" x="-879.85" y="-5251.60"/>
        <vehicle id="veh2" eclass="HBEFA3/PC_G_EU4" CO2="6479.69" CO="122.44" HC="0.71" NOx="2.79" PMx="0.13" fuel="2.79" electricity="0.00" noise="68.23" route="!veh2!var#1" type="normalVehicle" waiting="0.00" lane="-E_0" pos="31.25" speed="8.66" angle="180.00" x="5248.40" y="1718.75"/>
    </timestep>
    <timestep time="76.00">
        <vehicle id="veh1" eclass="Zero/default" CO2="0.00" CO="0.00" HC="0.00" NOx="0.00" PMx="0.00" fuel="0.00" electricity="0.00" noise="0.00" route="!veh1!var#1" type="eVehicle" waiting="0.00" lane="-A_0" pos="883.76" speed="13.61" angle="90.00" x="-866.24" y="-5251.60"/>
        <vehicle id="veh2" eclass="HBEFA3/PC_G_EU4" CO2="8091.91" CO="135.38" HC="0.81" NOx="3.50" PMx="0.17" fuel="3.48" electricity="0.00" noise="69.99" route="!veh2!var#1" type="normalVehicle" waiting="0.00" lane="-E_0" pos="42.03" speed="10.78" angle="180.00" x="5248.40" y="1707.97"/>
    </timestep>
    <timestep time="77.00">
        <vehicle id="veh1" eclass="Zero/default" CO2="0.00" CO="0.00" HC="0.00" NOx="0.00" PMx="0.00" fuel="0.00" electricity="0.00" noise="0.00" route="!veh1!var#1" type="eVehicle" waiting="0.00" lane="-A_0" pos="897.26" speed="13.50" angle="90.00" x="-852.74" y="-5251.60"/>
        <vehicle id="veh2" eclass="HBEFA3/PC_G_EU4" CO2="6478.51" CO="91.20" HC="0.57" NOx="2.70" PMx="0.12" fuel="2.78" electricity="0.00" noise="67.65" route="!veh2!var#1" type="normalVehicle" waiting="0.00" lane="-E_0" pos="54.15" speed="12.13" angle="180.00" x="5248.40" y="1695.85"/>
    </timestep>
    <timestep time="78.00">
        <vehicle id="veh1" eclass="Zero/default" CO2="0.00" CO="0.00" HC="0.00" NOx="0.00" PMx="0.00" fuel="0.00" electricity="0.00" noise="0.00" route="!veh1!var#1" type="eVehicle" waiting="0.00" lane="-A_0" pos="910.75" speed="13.49" angle="90.00" x="-839.25" y="-5251.60"/>
        <vehicle id="veh2" eclass="HBEFA3/PC_G_EU4" CO2="0.00" CO="0.00" HC="0.00" NOx="0.00" PMx="0.00" fuel="0.00" electricity="0.00" noise="63.26" route="!veh2!var#1" type="normalVehicle" waiting="0.00" lane="-E_0" pos="66.26" speed="12.11" angle="180.00" x="5248.40" y="1683.74"/>
    </timestep>
    <timestep time="79.00">
        <vehicle id="veh1" eclass="Zero/default" CO2="0.00" CO="0.00" HC="0.00" NOx="0.00" PMx="0.00" fuel="0.00" electricity="0.00" noise="0.00" route="!veh1!var#1" type="eVehicle" waiting="0.00" lane="-A_0" pos="924.51" speed="13.76" angle="90.00" x="-825.49" y="-5251.60"/>
        <vehicle id="veh2" eclass="HBEFA3/PC_G_EU4" CO2="4388.28" CO="43.61" HC="0.30" NOx="1.70" PMx="0.07" fuel="1.89" electricity="0.00" noise="65.58" route="!veh2!var#1" type="normalVehicle" waiting="0.00" lane="-E_0" pos="79.02" speed="12.75" angle="180.00" x="5248.40" y="1670.98"/>
    </timestep>
    <timestep time="80.00">
        <vehicle id="veh1" eclass="Zero/default" CO2="0.00" CO="0.00" HC="0.00" NOx="0.00" PMx="0.00" fuel="0.00" electricity="0.00" noise="0.00" route="!veh1!var#1" type="eVehicle" waiting="0.00" lane="-A_0" pos="938.01" speed="13.50" angle="90.00" x="-811.99" y="-5251.60"/>
        <vehicle id="veh2" eclass="HBEFA3/PC_G_EU4" CO2="0.00" CO="0.00" HC="0.00" NOx="0.00" PMx="0.00" fuel="0.00" electricity="0.00" noise="61.85" route="!veh2!var#1" type="normalVehicle" waiting="0.00" lane="-E_0" pos="91.12" speed="12.10" angle="180.00" x="5248.40" y="1658.88"/>
    </timestep>
    <timestep time="81.00">
        <vehicle id="veh1" eclass="Zero/default" CO2="0.00" CO="0.00" HC="0.00" NOx="0.00" PMx="0.00" fuel="0.00" electricity="0.00" noise="0.00" route="!veh1!var#1" type="eVehicle" waiting="0.00" lane="-A_0" pos="952.07" speed="14.06" angle="90.00" x="-797.93" y="-5251.60"/>
        <vehicle id="veh2" eclass="HBEFA3/PC_G_EU4" CO2="0.00" CO="0.00" HC="0.00" NOx="0.00" PMx="0.00" fuel="0.00" electricity="0.00" noise="62.14" route="!veh2!var#1" type="normalVehicle" waiting="0.00" lane="-E_0" pos="102.85" speed="11.73" angle="180.00" x="5248.40" y="1647.15"/>
    </timestep>
    <timestep time="82.00">
        <vehicle id="veh1" eclass="Zero/default" CO2="0.00" CO="0.00" HC="0.00" NOx="0.00" PMx="0.00" fuel="0.00" electricity="0.00" noise="0.00" route="!veh1!var#1" type="eVehicle" waiting="0.00" lane="-A_0" pos="966.18" speed="14.11" angle="90.00" x="-783.82" y="-5251.60"/>
        <vehicle id="veh2" eclass="HBEFA3/PC_G_EU4" CO2="6136.55" CO="78.67" HC="0.50" NOx="2.52" PMx="0.11" fuel="2.64" electricity="0.00" noise="67.36" route="!veh2!var#1" type="normalVehicle" waiting="0.00" lane="-E_0" pos="115.74" speed="12.89" angle="180.00" x="5248.40" y="1634.26"/>
    </timestep>
    <timestep time="83.00">
        <vehicle id="veh1" eclass="Zero/default" CO2="0.00" CO="0.00" HC="0.00" NOx="0.00" PMx="0.00" fuel="0.00" electricity="0.00" noise="0.00" route="!veh1!var#1" type="eVehicle" waiting="0.00" lane="-A_0" pos="980.68" speed="14.50" angle="90.00" x="-769.32" y="-5251.60"/>
        <vehicle id="veh2" eclass="HBEFA3/PC_G_EU4" CO2="0.00" CO="0.00" HC="0.00" NOx="0.00" PMx="0.00" fuel="0.00" electricity="0.00" noise="60.74" route="!veh2!var#1" type="normalVehicle" waiting="0.00" lane="-E_0" pos="127.48" speed="11.74" angle="180.00" x="5248.40" y="1622.52"/>
    </timestep>
    <timestep time="84.00">
        <vehicle id="veh1" eclass="Zero/default" CO2="0.00" CO="0.00" HC="0.00" NOx="0.00" PMx="0.00" fuel="0.00" electricity="0.00" noise="0.00" route="!veh1!var#1" type="eVehicle" waiting="0.00" lane="-A_0" pos="994.14" speed="13.46" angle="90.00" x="-755.86" y="-5251.60"/>
        <vehicle id="veh2" eclass="HBEFA3/PC_G_EU4" CO2="5535.42" CO="67.37" HC="0.44" NOx="2.24" PMx="0.10" fuel="2.38" electricity="0.00" noise="66.70" route="!veh2!var#1" type="normalVehicle" waiting="0.00" lane="-E_0" pos="140.22" speed="12.73" angle="180.00" x="5248.40" y="1609.78"/>
    </timestep>
    <timestep time="85.00">
        <vehicle id="veh1" eclass="Zero/default" CO2="0.00" CO="0.00" HC="0.00" NOx="0.00" PMx="0.00" fuel="0.00" electricity="0.00" noise="0.00" route="!veh1!var#1" type="eVehicle" waiting="0.00" lane="-A_0" pos="1008.68" speed="14.54" angle="90.00" x="-741.32" y="-5251.60"/>