<?xml version="1.0" encoding="UTF-8"?>

<!-- generated on 02/10/21 23:04:20 by Eclipse SUMO GUI Version 1.7.0
<configuration xmlns:xsi="http://www.w3.org/2001/XMLSchema-instance" xsi:noNamespaceSchemaLocation="http://sumo.dlr.de/xsd/sumoConfiguration.xsd">

    <input>
        <net-file value="caseVE.net.xml"/>
        <route-files value="caseVE.rou.xml"/>
        <additional-files value="caseVE.add.xml"/>
    </input>

    <output>
        <emission-output value="emissionOutput.xml"/>
        <tripinfo-output value="tripinfo.xml"/>
    </output>

    <processing>
        <ignore-route-errors value="true"/>
    </processing>

    <traci_server>
        <remote-port value="58205"/>
    </traci_server>

</configuration>
-->

<tripinfos xmlns:xsi="http://www.w3.org/2001/XMLSchema-instance" xsi:noNamespaceSchemaLocation="http://sumo.dlr.de/xsd/tripinfo_file.xsd">
    <tripinfo id="veh3" depart="24.00" departLane="-H_0" departPos="5.10" departSpeed="0.00" departDelay="0.00" arrival="1121.00" arrivalLane="F_0" arrivalPos="1742.80" arrivalSpeed="14.07" duration="1097.00" routeLength="15744.90" waitingTime="0.00" waitingCount="0" stopTime="0.00" timeLoss="49.25" rerouteNo="1" devices="tripinfo_veh3 routing_veh3 emissions_veh3" vType="authority@veh3" speedFactor="1.08" vaporized="">
        <emissions CO_abs="0" CO2_abs="0" HC_abs="0" PMx_abs="0" NOx_abs="0" fuel_abs="0" electricity_abs="0"/>
    </tripinfo>
    <tripinfo id="veh0" depart="3.00" departLane="-D_0" departPos="5.10" departSpeed="0.00" departDelay="0.00" arrival="1142.00" arrivalLane="B_0" arrivalPos="1742.80" arrivalSpeed="14.22" duration="1139.00" routeLength="15744.90" waitingTime="0.00" waitingCount="0" stopTime="0.00" timeLoss="68.83" rerouteNo="1" devices="tripinfo_veh0 routing_veh0 emissions_veh0" vType="authority" speedFactor="1.06" vaporized="">
        <emissions CO_abs="19166.895823" CO2_abs="2449960.344208" HC_abs="143.028986" PMx_abs="35.146397" NOx_abs="920.918629" fuel_abs="1053.132444" electricity_abs="0"/>
    </tripinfo>
    <tripinfo id="veh6" depart="38.00" departLane="-E_0" departPos="5.10" departSpeed="0.00" departDelay="0.00" arrival="1175.00" arrivalLane="G_0" arrivalPos="1742.80" arrivalSpeed="13.87" duration="1137.00" routeLength="15744.90" waitingTime="0.00" waitingCount="0" stopTime="0.00" timeLoss="52.45" rerouteNo="1" devices="tripinfo_veh6 routing_veh6 emissions_veh6" vType="authority@veh6" speedFactor="1.05" vaporized="">
        <emissions CO_abs="0" CO2_abs="0" HC_abs="0" PMx_abs="0" NOx_abs="0" fuel_abs="0" electricity_abs="0"/>
    </tripinfo>
    <tripinfo id="veh1" depart="7.00" departLane="-F_0" departPos="5.10" departSpeed="0.00" departDelay="0.00" arrival="1283.00" arrivalLane="H_0" arrivalPos="1742.80" arrivalSpeed="11.98" duration="1276.00" routeLength="15744.90" waitingTime="0.00" waitingCount="0" stopTime="0.00" timeLoss="67.10" rerouteNo="1" devices="tripinfo_veh1 routing_veh1 emissions_veh1" vType="authority@veh1" speedFactor="0.94" vaporized="">
        <emissions CO_abs="0" CO2_abs="0" HC_abs="0" PMx_abs="0" NOx_abs="0" fuel_abs="0" electricity_abs="0"/>
    </tripinfo>
    <tripinfo id="veh2" depart="10.00" departLane="-F_0" departPos="5.10" departSpeed="0.00" departDelay="3.00" arrival="1284.00" arrivalLane="H_0" arrivalPos="1742.80" arrivalSpeed="13.34" duration="1274.00" routeLength="15744.90" waitingTime="0.00" waitingCount="0" stopTime="0.00" timeLoss="151.90" rerouteNo="1" devices="tripinfo_veh2 routing_veh2 emissions_veh2" vType="authority" speedFactor="1.01" vaporized="">
        <emissions CO_abs="29447.420835" CO2_abs="2832037.772934" HC_abs="200.131187" PMx_abs="43.853450" NOx_abs="1103.949746" fuel_abs="1217.370731" electricity_abs="0"/>
    </tripinfo>
    <tripinfo id="veh4" depart="34.00" departLane="-F_0" departPos="5.10" departSpeed="0.00" departDelay="0.00" arrival="1286.00" arrivalLane="H_0" arrivalPos="1742.80" arrivalSpeed="13.22" duration="1252.00" routeLength="15744.90" waitingTime="0.00" waitingCount="0" stopTime="0.00" timeLoss="151.29" rerouteNo="1" devices="tripinfo_veh4 routing_veh4 emissions_veh4" vType="authority@veh4" speedFactor="1.03" vaporized="">
        <emissions CO_abs="0" CO2_abs="0" HC_abs="0" PMx_abs="0" NOx_abs="0" fuel_abs="0" electricity_abs="0"/>
    </tripinfo>
    <tripinfo id="veh19" depart="166.00" departLane="-F_0" departPos="5.10" departSpeed="0.00" departDelay="0.00" arrival="1288.00" arrivalLane="H_0" arrivalPos="1742.80" arrivalSpeed="15.39" duration="1122.00" routeLength="15744.90" waitingTime="0.00" waitingCount="0" stopTime="0.00" timeLoss="142.42" rerouteNo="1" devices="tripinfo_veh19 routing_veh19 emissions_veh19" vType="authority@veh19" speedFactor="1.16" vaporized="">
        <emissions CO_abs="0" CO2_abs="0" HC_abs="0" PMx_abs="0" NOx_abs="0" fuel_abs="0" electricity_abs="0"/>
    </tripinfo>
    <tripinfo id="veh10" depart="93.00" departLane="-A_0" departPos="5.10" departSpeed="0.00" departDelay="0.00" arrival="1297.00" arrivalLane="C_0" arrivalPos="1742.80" arrivalSpeed="14.50" duration="1204.00" routeLength="15744.90" waitingTime="0.00" waitingCount="0" stopTime="0.00" timeLoss="164.39" rerouteNo="1" devices="tripinfo_veh10 routing_veh10 emissions_veh10" vType="authority@veh10" speedFactor="1.09" vaporized="">
        <emissions CO_abs="0" CO2_abs="0" HC_abs="0" PMx_abs="0" NOx_abs="0" fuel_abs="0" electricity_abs="0"/>
    </tripinfo>
    <tripinfo id="veh37" depart="313.00" departLane="-F_0" departPos="5.10" departSpeed="0.00" departDelay="0.00" arrival="1319.00" arrivalLane="H_0" arrivalPos="1742.80" arrivalSpeed="15.96" duration="1006.00" routeLength="15744.90" waitingTime="0.00" waitingCount="0" stopTime="0.00" timeLoss="44.58" rerouteNo="1" devices="tripinfo_veh37 routing_veh37 emissions_veh37" vType="authority@veh37" speedFactor="1.18" vaporized="">
        <emissions CO_abs="0" CO2_abs="0" HC_abs="0" PMx_abs="0" NOx_abs="0" fuel_abs="0" electricity_abs="0"/>
    </tripinfo>
    <tripinfo id="veh14" depart="117.00" departLane="-C_0" departPos="5.10" departSpeed="0.00" departDelay="0.00" arrival="1329.00" arrivalLane="A_0" arrivalPos="1742.80" arrivalSpeed="13.00" duration="1212.00" routeLength="15744.90" waitingTime="0.00" waitingCount="0" stopTime="0.00" timeLoss="67.78" rerouteNo="1" devices="tripinfo_veh14 routing_veh14 emissions_veh14" vType="authority@veh14" speedFactor="0.99" vaporized="">
        <emissions CO_abs="0" CO2_abs="0" HC_abs="0" PMx_abs="0" NOx_abs="0" fuel_abs="0" electricity_abs="0"/>
    </tripinfo>
    <tripinfo id="veh8" depart="66.00" departLane="-E_0" departPos="5.10" departSpeed="0.00" departDelay="0.00" arrival="1341.00" arrivalLane="G_0" arrivalPos="1742.80" arrivalSpeed="12.95" duration="1275.00" routeLength="15744.90" waitingTime="0.00" waitingCount="0" stopTime="0.00" timeLoss="65.68" rerouteNo="1" devices="tripinfo_veh8 routing_veh8 emissions_veh8" vType="authority@veh8" speedFactor="0.94" vaporized="">
        <emissions CO_abs="0" CO2_abs="0" HC_abs="0" PMx_abs="0" NOx_abs="0" fuel_abs="0" electricity_abs="0"/>
    </tripinfo>
    <tripinfo id="veh11" depart="103.00" departLane="-E_0" departPos="5.10" departSpeed="0.00" departDelay="0.00" arrival="1342.00" arrivalLane="G_0" arrivalPos="1742.80" arrivalSpeed="13.96" duration="1239.00" routeLength="15744.90" waitingTime="0.00" waitingCount="0" stopTime="0.00" timeLoss="134.43" rerouteNo="1" devices="tripinfo_veh11 routing_veh11 emissions_veh11" vType="authority@veh11" speedFactor="1.03" vaporized="">
        <emissions CO_abs="0" CO2_abs="0" HC_abs="0" PMx_abs="0" NOx_abs="0" fuel_abs="0" electricity_abs="0"/>
    </tripinfo>
    <tripinfo id="veh30" depart="246.00" departLane="-E_0" departPos="5.10" departSpeed="0.00" departDelay="0.00" arrival="1344.00" arrivalLane="G_0" arrivalPos="1742.80" arrivalSpeed="15.68" duration="1098.00" routeLength="15744.90" waitingTime="0.00" waitingCount="0" stopTime="0.00" timeLoss="135.67" rerouteNo="1" devices="tripinfo_veh30 routing_veh30 emissions_veh30" vType="authority@veh30" speedFactor="1.18" vaporized="">
        <emissions CO_abs="0" CO2_abs="0" HC_abs="0" PMx_abs="0" NOx_abs="0" fuel_abs="0" electricity_abs="0"/>
    </tripinfo>
    <tripinfo id="veh7" depart="39.00" departLane="-B_0" departPos="5.10" departSpeed="0.00" departDelay="0.00" arrival="1401.00" arrivalLane="D_0" arrivalPos="1742.80" arrivalSpeed="11.09" duration="1362.00" routeLength="15744.90" waitingTime="0.00" waitingCount="0" stopTime="0.00" timeLoss="82.33" rerouteNo="1" devices="tripinfo_veh7 routing_veh7 emissions_veh7" vType="authority@veh7" speedFactor="0.89" vaporized="">
        <emissions CO_abs="25798.960276" CO2_abs="2591819.197789" HC_abs="176.957536" PMx_abs="35.054780" NOx_abs="978.864681" fuel_abs="1114.117773" electricity_abs="0"/>
    </tripinfo>
    <tripinfo id="veh12" depart="105.00" departLane="-B_0" departPos="5.10" departSpeed="0.00" departDelay="0.00" arrival="1403.00" arrivalLane="D_0" arrivalPos="1742.80" arrivalSpeed="13.39" duration="1298.00" routeLength="15744.90" waitingTime="0.00" waitingCount="0" stopTime="0.00" timeLoss="214.87" rerouteNo="1" devices="tripinfo_veh12 routing_veh12 emissions_veh12" vType="authority@veh12" speedFactor="1.05" vaporized="">
        <emissions CO_abs="31335.293595" CO2_abs="2917819.216883" HC_abs="210.166275" PMx_abs="44.890126" NOx_abs="1135.889629" fuel_abs="1254.245637" electricity_abs="0"/>
    </tripinfo>
    <tripinfo id="veh13" depart="108.00" departLane="-B_0" departPos="5.10" departSpeed="0.00" departDelay="1.00" arrival="1404.00" arrivalLane="D_0" arrivalPos="1742.80" arrivalSpeed="14.26" duration="1296.00" routeLength="15744.90" waitingTime="0.00" waitingCount="0" stopTime="0.00" timeLoss="286.54" rerouteNo="1" devices="tripinfo_veh13 routing_veh13 emissions_veh13" vType="authority@veh13" speedFactor="1.12" vaporized="">
        <emissions CO_abs="38685.269597" CO2_abs="3299069.295200" HC_abs="253.314525" PMx_abs="54.646051" NOx_abs="1313.326446" fuel_abs="1418.125222" electricity_abs="0"/>
    </tripinfo>
    <tripinfo id="veh15" depart="122.00" departLane="-H_0" departPos="5.10" departSpeed="0.00" departDelay="0.00" arrival="1412.00" arrivalLane="F_0" arrivalPos="1742.80" arrivalSpeed="11.58" duration="1290.00" routeLength="15744.90" waitingTime="0.00" waitingCount="0" stopTime="0.00" timeLoss="66.90" rerouteNo="1" devices="tripinfo_veh15 routing_veh15 emissions_veh15" vType="authority@veh15" speedFactor="0.93" vaporized="">
        <emissions CO_abs="0" CO2_abs="0" HC_abs="0" PMx_abs="0" NOx_abs="0" fuel_abs="0" electricity_abs="0"/>
    </tripinfo>
    <tripinfo id="veh18" depart="154.00" departLane="-A_0" departPos="5.10" departSpeed="0.00" departDelay="0.00" arrival="1446.00" arrivalLane="C_0" arrivalPos="1742.80" arrivalSpeed="12.65" duration="1292.00" routeLength="15744.90" waitingTime="0.00" waitingCount="0" stopTime="0.00" timeLoss="80.61" rerouteNo="1" devices="tripinfo_veh18 routing_veh18 emissions_veh18" vType="authority@veh18" speedFactor="0.94" vaporized="">
        <emissions CO_abs="0" CO2_abs="0" HC_abs="0" PMx_abs="0" NOx_abs="0" fuel_abs="0" electricity_abs="0"/>
    </tripinfo>
    <tripinfo id="veh32" depart="277.00" departLane="-G_0" departPos="5.10" departSpeed="0.00" departDelay="0.00" arrival="1464.00" arrivalLane="E_0" arrivalPos="1742.80" arrivalSpeed="13.43" duration="1187.00" routeLength="15744.90" waitingTime="0.00" waitingCount="0" stopTime="0.00" timeLoss="58.47" rerouteNo="1" devices="tripinfo_veh32 routing_veh32 emissions_veh32" vType="authority@veh32" speedFactor="1.01" vaporized="">
        <emissions CO_abs="0" CO2_abs="0" HC_abs="0" PMx_abs="0" NOx_abs="0" fuel_abs="0" electricity_abs="0"/>
    </tripinfo>
    <tripinfo id="veh34" depart="285.00" departLane="-G_0" departPos="5.10" departSpeed="0.00" departDelay="0.00" arrival="1484.00" arrivalLane="E_0" arrivalPos="1742.80" arrivalSpeed="13.30" duration="1199.00" routeLength="15744.90" waitingTime="0.00" waitingCount="0" stopTime="0.00" timeLoss="58.84" rerouteNo="1" devices="tripinfo_veh34 routing_veh34 emissions_veh34" vType="authority@veh34" speedFactor="0.99" vaporized="">
        <emissions CO_abs="0" CO2_abs="0" HC_abs="0" PMx_abs="0" NOx_abs="0" fuel_abs="0" electricity_abs="0"/>
    </tripinfo>
    <tripinfo id="veh27" depart="226.00" departLane="-A_0" departPos="5.10" departSpeed="0.00" departDelay="0.00" arrival="1499.00" arrivalLane="C_0" arrivalPos="1742.80" arrivalSpeed="12.23" duration="1273.00" routeLength="15744.90" waitingTime="0.00" waitingCount="0" stopTime="0.00" timeLoss="77.95" rerouteNo="1" devices="tripinfo_veh27 routing_veh27 emissions_veh27" vType="authority@veh27" speedFactor="0.95" vaporized="">
        <emissions CO_abs="0" CO2_abs="0" HC_abs="0" PMx_abs="0" NOx_abs="0" fuel_abs="0" electricity_abs="0"/>
    </tripinfo>
    <tripinfo id="veh29" depart="244.00" departLane="-H_0" departPos="5.10" departSpeed="0.00" departDelay="0.00" arrival="1526.00" arrivalLane="F_0" arrivalPos="1742.80" arrivalSpeed="12.68" duration="1282.00" routeLength="15744.90" waitingTime="0.00" waitingCount="0" stopTime="0.00" timeLoss="64.08" rerouteNo="1" devices="tripinfo_veh29 routing_veh29 emissions_veh29" vType="authority@veh29" speedFactor="0.93" vaporized="">
        <emissions CO_abs="0" CO2_abs="0" HC_abs="0" PMx_abs="0" NOx_abs="0" fuel_abs="0" electricity_abs="0"/>
    </tripinfo>
    <tripinfo id="veh35" depart="286.00" departLane="-H_0" departPos="5.10" departSpeed="0.00" departDelay="0.00" arrival="1527.00" arrivalLane="F_0" arrivalPos="1742.80" arrivalSpeed="12.89" duration="1241.00" routeLength="15744.90" waitingTime="0.00" waitingCount="0" stopTime="0.00" timeLoss="129.27" rerouteNo="1" devices="tripinfo_veh35 routing_veh35 emissions_veh35" vType="authority@veh35" speedFactor="1.02" vaporized="">
        <emissions CO_abs="0" CO2_abs="0" HC_abs="0" PMx_abs="0" NOx_abs="0" fuel_abs="0" electricity_abs="0"/>
    </tripinfo>
    <tripinfo id="veh33" depart="282.00" departLane="-E_0" departPos="5.10" departSpeed="0.00" departDelay="0.00" arrival="1529.00" arrivalLane="G_0" arrivalPos="1742.80" arrivalSpeed="15.93" duration="1247.00" routeLength="19233.74" waitingTime="0.00" waitingCount="0" stopTime="0.00" timeLoss="62.71" rerouteNo="2" devices="tripinfo_veh33 routing_veh33 emissions_veh33" vType="authority@veh33" speedFactor="1.17" vaporized="">
        <emissions CO_abs="19192.137732" CO2_abs="2884583.748855" HC_abs="151.620978" PMx_abs="42.067961" NOx_abs="1071.109951" fuel_abs="1239.955865" electricity_abs="0"/>
    </tripinfo>
    <tripinfo id="veh46" depart="422.00" departLane="-H_0" departPos="5.10" departSpeed="0.00" departDelay="0.00" arrival="1619.00" arrivalLane="F_0" arrivalPos="1742.80" arrivalSpeed="12.61" duration="1197.00" routeLength="15744.90" waitingTime="0.00" waitingCount="0" stopTime="0.00" timeLoss="59.73" rerouteNo="1" devices="tripinfo_veh46 routing_veh46 emissions_veh46" vType="authority@veh46" speedFactor="1.00" vaporized="">
        <emissions CO_abs="0" CO2_abs="0" HC_abs="0" PMx_abs="0" NOx_abs="0" fuel_abs="0" electricity_abs="0"/>
    </tripinfo>
    <tripinfo id="veh21" depart="175.00" departLane="-D_0" departPos="5.10" departSpeed="0.00" departDelay="0.00" arrival="1635.00" arrivalLane="B_0" arrivalPos="1742.80" arrivalSpeed="13.34" duration="1460.00" routeLength="19233.74" waitingTime="0.00" waitingCount="0" stopTime="0.00" timeLoss="86.66" rerouteNo="3" devices="tripinfo_veh21 routing_veh21 emissions_veh21" vType="authority@veh21" speedFactor="1.01" vaporized="">
        <emissions CO_abs="24738.017602" CO2_abs="3056563.760016" HC_abs="182.897338" PMx_abs="42.755037" NOx_abs="1147.804196" fuel_abs="1313.887081" electricity_abs="0"/>
    </tripinfo>
    <tripinfo id="veh38" depart="345.00" departLane="-E_0" departPos="5.10" departSpeed="0.00" departDelay="0.00" arrival="1669.00" arrivalLane="G_0" arrivalPos="1742.80" arrivalSpeed="14.67" duration="1324.00" routeLength="19233.74" waitingTime="0.00" waitingCount="0" stopTime="0.00" timeLoss="65.38" rerouteNo="2" devices="tripinfo_veh38 routing_veh38 emissions_veh38" vType="authority@veh38" speedFactor="1.10" vaporized="">
        <emissions CO_abs="19793.892455" CO2_abs="2850075.515169" HC_abs="153.980162" PMx_abs="40.492384" NOx_abs="1060.281628" fuel_abs="1225.123854" electricity_abs="0"/>
    </tripinfo>
    <tripinfo id="veh24" depart="208.00" departLane="-C_0" departPos="5.10" departSpeed="0.00" departDelay="0.00" arrival="1672.00" arrivalLane="A_0" arrivalPos="1742.80" arrivalSpeed="11.44" duration="1464.00" routeLength="15744.90" waitingTime="0.00" waitingCount="0" stopTime="0.00" timeLoss="90.80" rerouteNo="1" devices="tripinfo_veh24 routing_veh24 emissions_veh24" vType="authority@veh24" speedFactor="0.83" vaporized="">
        <emissions CO_abs="0" CO2_abs="0" HC_abs="0" PMx_abs="0" NOx_abs="0" fuel_abs="0" electricity_abs="0"/>
    </tripinfo>
    <tripinfo id="veh28" depart="227.00" departLane="-C_0" departPos="5.10" departSpeed="0.00" departDelay="0.00" arrival="1674.00" arrivalLane="A_0" arrivalPos="1742.80" arrivalSpeed="14.17" duration="1447.00" routeLength="15744.90" waitingTime="0.00" waitingCount="0" stopTime="0.00" timeLoss="444.96" rerouteNo="1" devices="tripinfo_veh28 routing_veh28 emissions_veh28" vType="authority@veh28" speedFactor="1.13" vaporized="">
        <emissions CO_abs="0" CO2_abs="0" HC_abs="0" PMx_abs="0" NOx_abs="0" fuel_abs="0" electricity_abs="0"/>
    </tripinfo>
    <tripinfo id="veh31" depart="265.00" departLane="-C_0" departPos="5.10" departSpeed="0.00" departDelay="0.00" arrival="1676.00" arrivalLane="A_0" arrivalPos="1742.80" arrivalSpeed="15.66" duration="1411.00" routeLength="15744.90" waitingTime="0.00" waitingCount="0" stopTime="0.00" timeLoss="428.18" rerouteNo="1" devices="tripinfo_veh31 routing_veh31 emissions_veh31" vType="authority@veh31" speedFactor="1.15" vaporized="">
        <emissions CO_abs="0" CO2_abs="0" HC_abs="0" PMx_abs="0" NOx_abs="0" fuel_abs="0" electricity_abs="0"/>
    </tripinfo>
    <tripinfo id="veh39" depart="349.00" departLane="-G_0" departPos="5.10" departSpeed="0.00" departDelay="0.00" arrival="1680.00" arrivalLane="E_0" arrivalPos="1742.80" arrivalSpeed="11.36" duration="1331.00" routeLength="15744.90" waitingTime="0.00" waitingCount="0" stopTime="0.00" timeLoss="72.06" rerouteNo="1" devices="tripinfo_veh39 routing_veh39 emissions_veh39" vType="authority@veh39" speedFactor="0.90" vaporized="">
        <emissions CO_abs="0" CO2_abs="0" HC_abs="0" PMx_abs="0" NOx_abs="0" fuel_abs="0" electricity_abs="0"/>
    </tripinfo>
    <tripinfo id="veh17" depart="127.00" departLane="-B_0" departPos="5.10" departSpeed="0.00" departDelay="0.00" arrival="1700.00" arrivalLane="D_0" arrivalPos="1742.80" arrivalSpeed="12.76" duration="1573.00" routeLength="19233.74" waitingTime="0.00" waitingCount="0" stopTime="0.00" timeLoss="98.96" rerouteNo="3" devices="tripinfo_veh17 routing_veh17 emissions_veh17" vType="authority@veh17" speedFactor="0.94" vaporized="">
        <emissions CO_abs="28027.230623" CO2_abs="3021710.449936" HC_abs="197.342098" PMx_abs="42.049853" NOx_abs="1143.060966" fuel_abs="1298.907601" electricity_abs="0"/>
    </tripinfo>
    <tripinfo id="veh22" depart="185.00" departLane="-C_0" departPos="5.10" departSpeed="0.00" departDelay="0.00" arrival="1701.00" arrivalLane="A_0" arrivalPos="1742.80" arrivalSpeed="12.44" duration="1516.00" routeLength="19233.74" waitingTime="0.00" waitingCount="0" stopTime="0.00" timeLoss="92.33" rerouteNo="2" devices="tripinfo_veh22 routing_veh22 emissions_veh22" vType="authority@veh22" speedFactor="0.98" vaporized="">
        <emissions CO_abs="26302.916995" CO2_abs="3062082.521506" HC_abs="190.347085" PMx_abs="42.476696" NOx_abs="1152.450048" fuel_abs="1316.260771" electricity_abs="0"/>
    </tripinfo>
    <tripinfo id="veh47" depart="423.00" departLane="-A_0" departPos="5.10" departSpeed="0.00" departDelay="0.00" arrival="1761.00" arrivalLane="C_0" arrivalPos="1742.80" arrivalSpeed="12.04" duration="1338.00" routeLength="15744.90" waitingTime="0.00" waitingCount="0" stopTime="0.00" timeLoss="78.88" rerouteNo="3" devices="tripinfo_veh47 routing_veh47 emissions_veh47" vType="authority@veh47" speedFactor="0.90" vaporized="">
        <emissions CO_abs="0" CO2_abs="0" HC_abs="0" PMx_abs="0" NOx_abs="0" fuel_abs="0" electricity_abs="0"/>
    </tripinfo>
    <tripinfo id="veh42" depart="378.00" departLane="-A_0" departPos="5.10" departSpeed="0.00" departDelay="0.00" arrival="1763.00" arrivalLane="C_0" arrivalPos="1742.80" arrivalSpeed="14.65" duration="1385.00" routeLength="19233.74" waitingTime="1.00" waitingCount="1" stopTime="0.00" timeLoss="113.82" rerouteNo="3" devices="tripinfo_veh42 routing_veh42 emissions_veh42" vType="authority@veh42" speedFactor="1.09" vaporized="">
        <emissions CO_abs="26017.351498" CO2_abs="3063167.201568" HC_abs="188.254144" PMx_abs="45.983021" NOx_abs="1166.342080" fuel_abs="1316.722079" electricity_abs="0"/>
    </tripinfo>
    <tripinfo id="veh16" depart="123.00" departLane="-G_0" departPos="5.10" departSpeed="0.00" departDelay="0.00" arrival="1802.00" arrivalLane="E_0" arrivalPos="1742.80" arrivalSpeed="12.15" duration="1679.00" routeLength="19233.74" waitingTime="0.00" waitingCount="0" stopTime="0.00" timeLoss="98.97" rerouteNo="2" devices="tripinfo_veh16 routing_veh16 emissions_veh16" vType="authority@veh16" speedFactor="0.88" vaporized="">
        <emissions CO_abs="29731.177622" CO2_abs="3025498.699108" HC_abs="204.610877" PMx_abs="39.788244" NOx_abs="1135.223285" fuel_abs="1300.540384" electricity_abs="0"/>
    </tripinfo>
    <tripinfo id="veh20" depart="170.00" departLane="-G_0" departPos="5.10" departSpeed="0.00" departDelay="0.00" arrival="1804.00" arrivalLane="E_0" arrivalPos="1742.80" arrivalSpeed="13.16" duration="1634.00" routeLength="19233.74" waitingTime="0.00" waitingCount="0" stopTime="0.00" timeLoss="270.94" rerouteNo="4" devices="tripinfo_veh20 routing_veh20 emissions_veh20" vType="authority@veh20" speedFactor="1.02" vaporized="">
        <emissions CO_abs="38931.733871" CO2_abs="3535022.313262" HC_abs="259.207994" PMx_abs="53.836527" NOx_abs="1376.412487" fuel_abs="1519.556182" electricity_abs="0"/>
    </tripinfo>
    <tripinfo id="veh5" depart="37.00" departLane="-F_0" departPos="5.10" departSpeed="0.00" departDelay="2.00" arrival="1815.00" arrivalLane="H_0" arrivalPos="1742.80" arrivalSpeed="11.46" duration="1778.00" routeLength="19233.74" waitingTime="0.00" waitingCount="0" stopTime="0.00" timeLoss="107.94" rerouteNo="2" devices="tripinfo_veh5 routing_veh5 emissions_veh5" vType="authority@veh5" speedFactor="0.83" vaporized="">
        <emissions CO_abs="33187.787835" CO2_abs="3069466.786747" HC_abs="221.011675" PMx_abs="39.496050" NOx_abs="1151.689413" fuel_abs="1319.443835" electricity_abs="0"/>
    </tripinfo>
    <tripinfo id="veh9" depart="85.00" departLane="-A_0" departPos="5.10" departSpeed="0.00" departDelay="0.00" arrival="1816.00" arrivalLane="C_0" arrivalPos="1742.80" arrivalSpeed="11.20" duration="1731.00" routeLength="19233.74" waitingTime="0.00" waitingCount="0" stopTime="0.00" timeLoss="112.00" rerouteNo="2" devices="tripinfo_veh9 routing_veh9 emissions_veh9" vType="authority@veh9" speedFactor="0.86" vaporized="">
        <emissions CO_abs="33967.866061" CO2_abs="3135240.401411" HC_abs="226.496133" PMx_abs="42.506168" NOx_abs="1189.068323" fuel_abs="1347.714228" electricity_abs="0"/>
    </tripinfo>
    <tripinfo id="veh53" depart="489.00" departLane="-E_0" departPos="5.10" departSpeed="0.00" departDelay="0.00" arrival="1824.00" arrivalLane="G_0" arrivalPos="1742.80" arrivalSpeed="14.90" duration="1335.00" routeLength="19233.74" waitingTime="0.00" waitingCount="0" stopTime="0.00" timeLoss="68.51" rerouteNo="2" devices="tripinfo_veh53 routing_veh53 emissions_veh53" vType="authority@veh53" speedFactor="1.10" vaporized="">
        <emissions CO_abs="20437.079117" CO2_abs="2838908.708074" HC_abs="157.531860" PMx_abs="40.823859" NOx_abs="1061.423877" fuel_abs="1220.323531" electricity_abs="0"/>
    </tripinfo>
    <tripinfo id="veh44" depart="410.00" departLane="-B_0" departPos="5.10" departSpeed="0.00" departDelay="0.00" arrival="1825.00" arrivalLane="D_0" arrivalPos="1742.80" arrivalSpeed="14.12" duration="1415.00" routeLength="19233.74" waitingTime="0.00" waitingCount="0" stopTime="0.00" timeLoss="85.05" rerouteNo="3" devices="tripinfo_veh44 routing_veh44 emissions_veh44" vType="authority@veh44" speedFactor="1.04" vaporized="">
        <emissions CO_abs="24066.126768" CO2_abs="3007250.211339" HC_abs="178.474132" PMx_abs="43.125252" NOx_abs="1132.919715" fuel_abs="1292.687667" electricity_abs="0"/>
    </tripinfo>
    <tripinfo id="veh45" depart="420.00" departLane="-B_0" departPos="5.10" departSpeed="0.00" departDelay="0.00" arrival="1827.00" arrivalLane="D_0" arrivalPos="1742.80" arrivalSpeed="14.02" duration="1407.00" routeLength="19233.74" waitingTime="0.00" waitingCount="0" stopTime="0.00" timeLoss="131.39" rerouteNo="3" devices="tripinfo_veh45 routing_veh45 emissions_veh45" vType="authority@veh45" speedFactor="1.09" vaporized="">
        <emissions CO_abs="31099.565656" CO2_abs="3340521.303735" HC_abs="218.726959" PMx_abs="52.121011" NOx_abs="1290.330928" fuel_abs="1435.943401" electricity_abs="0"/>
    </tripinfo>
    <tripinfo id="veh56" depart="500.00" departLane="-A_0" departPos="5.10" departSpeed="0.00" departDelay="0.00" arrival="1845.00" arrivalLane="C_0" arrivalPos="1742.80" arrivalSpeed="12.19" duration="1345.00" routeLength="15744.90" waitingTime="0.00" waitingCount="0" stopTime="0.00" timeLoss="83.08" rerouteNo="5" devices="tripinfo_veh56 routing_veh56 emissions_veh56" vType="authority@veh56" speedFactor="0.90" vaporized="">
        <emissions CO_abs="0" CO2_abs="0" HC_abs="0" PMx_abs="0" NOx_abs="0" fuel_abs="0" electricity_abs="0"/>
    </tripinfo>
    <tripinfo id="veh26" depart="222.00" departLane="-C_0" departPos="5.10" departSpeed="0.00" departDelay="0.00" arrival="1853.00" arrivalLane="A_0" arrivalPos="1742.80" arrivalSpeed="11.59" duration="1631.00" routeLength="19233.74" waitingTime="0.00" waitingCount="0" stopTime="0.00" timeLoss="118.57" rerouteNo="3" devices="tripinfo_veh26 routing_veh26 emissions_veh26" vType="authority@veh26" speedFactor="0.92" vaporized="">
        <emissions CO_abs="31275.342481" CO2_abs="3169758.611906" HC_abs="215.382086" PMx_abs="43.852406" NOx_abs="1201.659219" fuel_abs="1362.548901" electricity_abs="0"/>
    </tripinfo>
    <tripinfo id="veh36" depart="293.00" departLane="-C_0" departPos="5.10" departSpeed="0.00" departDelay="0.00" arrival="1855.00" arrivalLane="A_0" arrivalPos="1742.80" arrivalSpeed="13.35" duration="1562.00" routeLength="19233.74" waitingTime="0.00" waitingCount="0" stopTime="0.00" timeLoss="135.20" rerouteNo="3" devices="tripinfo_veh36 routing_veh36 emissions_veh36" vType="authority@veh36" speedFactor="0.97" vaporized="">
        <emissions CO_abs="33345.712871" CO2_abs="3336359.194565" HC_abs="229.218919" PMx_abs="49.536026" NOx_abs="1284.353849" fuel_abs="1434.159065" electricity_abs="0"/>
    </tripinfo>
    <tripinfo id="veh40" depart="351.00" departLane="-C_0" departPos="5.10" departSpeed="0.00" departDelay="0.00" arrival="1857.00" arrivalLane="A_0" arrivalPos="1742.80" arrivalSpeed="14.16" duration="1506.00" routeLength="19233.74" waitingTime="0.00" waitingCount="0" stopTime="0.00" timeLoss="158.93" rerouteNo="5" devices="tripinfo_veh40 routing_veh40 emissions_veh40" vType="authority@veh40" speedFactor="1.03" vaporized="">
        <emissions CO_abs="34805.705564" CO2_abs="3453871.416167" HC_abs="238.665768" PMx_abs="53.493930" NOx_abs="1340.967040" fuel_abs="1484.669670" electricity_abs="0"/>
    </tripinfo>
    <tripinfo id="veh43" depart="390.00" departLane="-C_0" departPos="5.10" departSpeed="0.00" departDelay="0.00" arrival="1858.00" arrivalLane="A_0" arrivalPos="1742.80" arrivalSpeed="13.62" duration="1468.00" routeLength="19233.74" waitingTime="0.00" waitingCount="0" stopTime="0.00" timeLoss="130.52" rerouteNo="3" devices="tripinfo_veh43 routing_veh43 emissions_veh43" vType="authority@veh43" speedFactor="1.04" vaporized="">
        <emissions CO_abs="30993.995107" CO2_abs="3263289.109607" HC_abs="216.461374" PMx_abs="49.866988" NOx_abs="1258.100987" fuel_abs="1402.746398" electricity_abs="0"/>
    </tripinfo>
    <tripinfo id="veh23" depart="198.00" departLane="-D_0" departPos="5.10" departSpeed="0.00" departDelay="0.00" arrival="1863.00" arrivalLane="B_0" arrivalPos="1742.80" arrivalSpeed="11.36" duration="1665.00" routeLength="19233.74" waitingTime="0.00" waitingCount="0" stopTime="0.00" timeLoss="104.43" rerouteNo="3" devices="tripinfo_veh23 routing_veh23 emissions_veh23" vType="authority@veh23" speedFactor="0.89" vaporized="">
        <emissions CO_abs="30836.070478" CO2_abs="3055245.705075" HC_abs="210.599808" PMx_abs="41.771016" NOx_abs="1157.005591" fuel_abs="1313.325656" electricity_abs="0"/>
    </tripinfo>
    <tripinfo id="veh60" depart="524.00" departLane="-E_0" departPos="5.10" departSpeed="0.00" departDelay="0.00" arrival="1877.00" arrivalLane="G_0" arrivalPos="1742.80" arrivalSpeed="14.41" duration="1353.00" routeLength="19233.74" waitingTime="0.00" waitingCount="0" stopTime="0.00" timeLoss="70.65" rerouteNo="1" devices="tripinfo_veh60 routing_veh60 emissions_veh60" vType="authority@veh60" speedFactor="1.08" vaporized="">
        <emissions CO_abs="0" CO2_abs="0" HC_abs="0" PMx_abs="0" NOx_abs="0" fuel_abs="0" electricity_abs="0"/>
    </tripinfo>
    <tripinfo id="veh49" depart="472.00" departLane="-H_0" departPos="5.10" departSpeed="0.00" departDelay="0.00" arrival="1884.00" arrivalLane="F_0" arrivalPos="1742.80" arrivalSpeed="11.50" duration="1412.00" routeLength="15744.90" waitingTime="0.00" waitingCount="0" stopTime="0.00" timeLoss="78.56" rerouteNo="1" devices="tripinfo_veh49 routing_veh49 emissions_veh49" vType="authority@veh49" speedFactor="0.85" vaporized="">