<?xml version="1.0" encoding="UTF-8"?>

<!-- generated on 02/10/21 17:28:23 by Eclipse SUMO GUI Version 1.7.0
<configuration xmlns:xsi="http://www.w3.org/2001/XMLSchema-instance" xsi:noNamespaceSchemaLocation="http://sumo.dlr.de/xsd/sumoConfiguration.xsd">

    <input>
        <net-file value="caseVE.net.xml"/>
        <route-files value="caseVE.rou.xml"/>
        <additional-files value="caseVE.add.xml"/>
    </input>

    <output>
        <emission-output value="emissionOutput.xml"/>
        <tripinfo-output value="tripinfo.xml"/>
    </output>

    <processing>
        <ignore-route-errors value="true"/>
    </processing>

    <traci_server>
        <remote-port value="52295"/>
    </traci_server>

</configuration>
-->

<tripinfos xmlns:xsi="http://www.w3.org/2001/XMLSchema-instance" xsi:noNamespaceSchemaLocation="http://sumo.dlr.de/xsd/tripinfo_file.xsd">
    <tripinfo id="veh3" depart="24.00" departLane="-H_0" departPos="5.10" departSpeed="0.00" departDelay="0.00" arrival="1121.00" arrivalLane="F_0" arrivalPos="1742.80" arrivalSpeed="14.07" duration="1097.00" routeLength="15744.90" waitingTime="0.00" waitingCount="0" stopTime="0.00" timeLoss="49.37" rerouteNo="1" devices="tripinfo_veh3 routing_veh3 emissions_veh3" vType="authority@veh3" speedFactor="1.08" vaporized="">
        <emissions CO_abs="0" CO2_abs="0" HC_abs="0" PMx_abs="0" NOx_abs="0" fuel_abs="0" electricity_abs="0"/>
    </tripinfo>
    <tripinfo id="veh0" depart="3.00" departLane="-D_0" departPos="5.10" departSpeed="0.00" departDelay="0.00" arrival="1141.00" arrivalLane="B_0" arrivalPos="1742.80" arrivalSpeed="14.20" duration="1138.00" routeLength="15744.90" waitingTime="0.00" waitingCount="0" stopTime="0.00" timeLoss="67.91" rerouteNo="1" devices="tripinfo_veh0 routing_veh0 emissions_veh0" vType="authority" speedFactor="1.06" vaporized="">
        <emissions CO_abs="19146.371147" CO2_abs="2431538.503716" HC_abs="142.608919" PMx_abs="35.046555" NOx_abs="915.264709" fuel_abs="1045.213533" electricity_abs="0"/>
    </tripinfo>
    <tripinfo id="veh6" depart="38.00" departLane="-E_0" departPos="5.10" departSpeed="0.00" departDelay="0.00" arrival="1175.00" arrivalLane="G_0" arrivalPos="1742.80" arrivalSpeed="14.06" duration="1137.00" routeLength="15744.90" waitingTime="0.00" waitingCount="0" stopTime="0.00" timeLoss="52.93" rerouteNo="1" devices="tripinfo_veh6 routing_veh6 emissions_veh6" vType="authority@veh6" speedFactor="1.05" vaporized="">
        <emissions CO_abs="0" CO2_abs="0" HC_abs="0" PMx_abs="0" NOx_abs="0" fuel_abs="0" electricity_abs="0"/>
    </tripinfo>
    <tripinfo id="veh1" depart="7.00" departLane="-F_0" departPos="5.10" departSpeed="0.00" departDelay="0.00" arrival="1282.00" arrivalLane="H_0" arrivalPos="1742.80" arrivalSpeed="13.01" duration="1275.00" routeLength="15744.90" waitingTime="0.00" waitingCount="0" stopTime="0.00" timeLoss="66.09" rerouteNo="1" devices="tripinfo_veh1 routing_veh1 emissions_veh1" vType="authority@veh1" speedFactor="0.94" vaporized="">
        <emissions CO_abs="0" CO2_abs="0" HC_abs="0" PMx_abs="0" NOx_abs="0" fuel_abs="0" electricity_abs="0"/>
    </tripinfo>
    <tripinfo id="veh2" depart="10.00" departLane="-F_0" departPos="5.10" departSpeed="0.00" departDelay="3.00" arrival="1283.00" arrivalLane="H_0" arrivalPos="1742.80" arrivalSpeed="13.29" duration="1273.00" routeLength="15744.90" waitingTime="0.00" waitingCount="0" stopTime="0.00" timeLoss="150.98" rerouteNo="1" devices="tripinfo_veh2 routing_veh2 emissions_veh2" vType="authority@veh2" speedFactor="1.01" vaporized="">
        <emissions CO_abs="29533.923798" CO2_abs="2821479.038748" HC_abs="200.314937" PMx_abs="43.983986" NOx_abs="1101.892003" fuel_abs="1212.831687" electricity_abs="0"/>
    </tripinfo>
    <tripinfo id="veh4" depart="34.00" departLane="-F_0" departPos="5.10" departSpeed="0.00" departDelay="0.00" arrival="1285.00" arrivalLane="H_0" arrivalPos="1742.80" arrivalSpeed="13.28" duration="1251.00" routeLength="15744.90" waitingTime="0.00" waitingCount="0" stopTime="0.00" timeLoss="150.37" rerouteNo="1" devices="tripinfo_veh4 routing_veh4 emissions_veh4" vType="authority@veh4" speedFactor="1.03" vaporized="">
        <emissions CO_abs="0" CO2_abs="0" HC_abs="0" PMx_abs="0" NOx_abs="0" fuel_abs="0" electricity_abs="0"/>
    </tripinfo>
    <tripinfo id="veh19" depart="166.00" departLane="-F_0" departPos="5.10" departSpeed="0.00" departDelay="0.00" arrival="1287.00" arrivalLane="H_0" arrivalPos="1742.80" arrivalSpeed="15.20" duration="1121.00" routeLength="15744.90" waitingTime="0.00" waitingCount="0" stopTime="0.00" timeLoss="141.51" rerouteNo="1" devices="tripinfo_veh19 routing_veh19 emissions_veh19" vType="authority@veh19" speedFactor="1.16" vaporized="">
        <emissions CO_abs="0" CO2_abs="0" HC_abs="0" PMx_abs="0" NOx_abs="0" fuel_abs="0" electricity_abs="0"/>
    </tripinfo>
    <tripinfo id="veh10" depart="93.00" departLane="-A_0" departPos="5.10" departSpeed="0.00" departDelay="0.00" arrival="1299.00" arrivalLane="C_0" arrivalPos="1742.80" arrivalSpeed="15.08" duration="1206.00" routeLength="15744.90" waitingTime="0.00" waitingCount="0" stopTime="0.00" timeLoss="165.76" rerouteNo="1" devices="tripinfo_veh10 routing_veh10 emissions_veh10" vType="authority@veh10" speedFactor="1.09" vaporized="">
        <emissions CO_abs="0" CO2_abs="0" HC_abs="0" PMx_abs="0" NOx_abs="0" fuel_abs="0" electricity_abs="0"/>
    </tripinfo>
    <tripinfo id="veh37" depart="313.00" departLane="-F_0" departPos="5.10" departSpeed="0.00" departDelay="0.00" arrival="1319.00" arrivalLane="H_0" arrivalPos="1742.80" arrivalSpeed="15.35" duration="1006.00" routeLength="15744.90" waitingTime="0.00" waitingCount="0" stopTime="0.00" timeLoss="44.27" rerouteNo="1" devices="tripinfo_veh37 routing_veh37 emissions_veh37" vType="authority@veh37" speedFactor="1.18" vaporized="">
        <emissions CO_abs="0" CO2_abs="0" HC_abs="0" PMx_abs="0" NOx_abs="0" fuel_abs="0" electricity_abs="0"/>
    </tripinfo>
    <tripinfo id="veh14" depart="117.00" departLane="-C_0" departPos="5.10" departSpeed="0.00" departDelay="0.00" arrival="1330.00" arrivalLane="A_0" arrivalPos="1742.80" arrivalSpeed="13.76" duration="1213.00" routeLength="15744.90" waitingTime="0.00" waitingCount="0" stopTime="0.00" timeLoss="68.80" rerouteNo="1" devices="tripinfo_veh14 routing_veh14 emissions_veh14" vType="authority@veh14" speedFactor="0.99" vaporized="">
        <emissions CO_abs="0" CO2_abs="0" HC_abs="0" PMx_abs="0" NOx_abs="0" fuel_abs="0" electricity_abs="0"/>
    </tripinfo>
    <tripinfo id="veh8" depart="66.00" departLane="-E_0" departPos="5.10" departSpeed="0.00" departDelay="0.00" arrival="1341.00" arrivalLane="G_0" arrivalPos="1742.80" arrivalSpeed="12.61" duration="1275.00" routeLength="15744.90" waitingTime="0.00" waitingCount="0" stopTime="0.00" timeLoss="66.22" rerouteNo="1" devices="tripinfo_veh8 routing_veh8 emissions_veh8" vType="authority@veh8" speedFactor="0.94" vaporized="">
        <emissions CO_abs="0" CO2_abs="0" HC_abs="0" PMx_abs="0" NOx_abs="0" fuel_abs="0" electricity_abs="0"/>
    </tripinfo>
    <tripinfo id="veh11" depart="103.00" departLane="-E_0" departPos="5.10" departSpeed="0.00" departDelay="0.00" arrival="1343.00" arrivalLane="G_0" arrivalPos="1742.80" arrivalSpeed="13.08" duration="1240.00" routeLength="15744.90" waitingTime="0.00" waitingCount="0" stopTime="0.00" timeLoss="134.93" rerouteNo="1" devices="tripinfo_veh11 routing_veh11 emissions_veh11" vType="authority@veh11" speedFactor="1.03" vaporized="">
        <emissions CO_abs="0" CO2_abs="0" HC_abs="0" PMx_abs="0" NOx_abs="0" fuel_abs="0" electricity_abs="0"/>
    </tripinfo>
    <tripinfo id="veh30" depart="246.00" departLane="-E_0" departPos="5.10" departSpeed="0.00" departDelay="0.00" arrival="1344.00" arrivalLane="G_0" arrivalPos="1742.80" arrivalSpeed="15.50" duration="1098.00" routeLength="15744.90" waitingTime="0.00" waitingCount="0" stopTime="0.00" timeLoss="136.14" rerouteNo="1" devices="tripinfo_veh30 routing_veh30 emissions_veh30" vType="authority@veh30" speedFactor="1.18" vaporized="">
        <emissions CO_abs="0" CO2_abs="0" HC_abs="0" PMx_abs="0" NOx_abs="0" fuel_abs="0" electricity_abs="0"/>
    </tripinfo>
    <tripinfo id="veh7" depart="39.00" departLane="-B_0" departPos="5.10" departSpeed="0.00" departDelay="0.00" arrival="1403.00" arrivalLane="D_0" arrivalPos="1742.80" arrivalSpeed="11.47" duration="1364.00" routeLength="15744.90" waitingTime="0.00" waitingCount="0" stopTime="0.00" timeLoss="84.11" rerouteNo="1" devices="tripinfo_veh7 routing_veh7 emissions_veh7" vType="authority@veh7" speedFactor="0.89" vaporized="">
        <emissions CO_abs="26198.909872" CO2_abs="2581900.483384" HC_abs="178.624386" PMx_abs="35.423224" NOx_abs="978.922191" fuel_abs="1109.853722" electricity_abs="0"/>
    </tripinfo>
    <tripinfo id="veh12" depart="105.00" departLane="-B_0" departPos="5.10" departSpeed="0.00" departDelay="0.00" arrival="1404.00" arrivalLane="D_0" arrivalPos="1742.80" arrivalSpeed="14.16" duration="1299.00" routeLength="15744.90" waitingTime="0.00" waitingCount="0" stopTime="0.00" timeLoss="216.41" rerouteNo="1" devices="tripinfo_veh12 routing_veh12 emissions_veh12" vType="authority@veh12" speedFactor="1.05" vaporized="">
        <emissions CO_abs="31248.082498" CO2_abs="2900095.539290" HC_abs="209.362750" PMx_abs="44.639449" NOx_abs="1129.333680" fuel_abs="1246.627021" electricity_abs="0"/>
    </tripinfo>
    <tripinfo id="veh13" depart="108.00" departLane="-B_0" departPos="5.10" departSpeed="0.00" departDelay="1.00" arrival="1406.00" arrivalLane="D_0" arrivalPos="1742.80" arrivalSpeed="14.86" duration="1298.00" routeLength="15744.90" waitingTime="0.00" waitingCount="0" stopTime="0.00" timeLoss="288.23" rerouteNo="1" devices="tripinfo_veh13 routing_veh13 emissions_veh13" vType="authority@veh13" speedFactor="1.12" vaporized="">
        <emissions CO_abs="39092.350068" CO2_abs="3296564.619484" HC_abs="255.169341" PMx_abs="54.997466" NOx_abs="1315.143966" fuel_abs="1417.048316" electricity_abs="0"/>
    </tripinfo>
    <tripinfo id="veh15" depart="122.00" departLane="-H_0" departPos="5.10" departSpeed="0.00" departDelay="0.00" arrival="1413.00" arrivalLane="F_0" arrivalPos="1742.80" arrivalSpeed="12.39" duration="1291.00" routeLength="15744.90" waitingTime="0.00" waitingCount="0" stopTime="0.00" timeLoss="67.76" rerouteNo="1" devices="tripinfo_veh15 routing_veh15 emissions_veh15" vType="authority@veh15" speedFactor="0.93" vaporized="">
        <emissions CO_abs="0" CO2_abs="0" HC_abs="0" PMx_abs="0" NOx_abs="0" fuel_abs="0" electricity_abs="0"/>
    </tripinfo>
    <tripinfo id="veh18" depart="154.00" departLane="-A_0" departPos="5.10" departSpeed="0.00" departDelay="0.00" arrival="1445.00" arrivalLane="C_0" arrivalPos="1742.80" arrivalSpeed="12.73" duration="1291.00" routeLength="15744.90" waitingTime="0.00" waitingCount="0" stopTime="0.00" timeLoss="79.68" rerouteNo="1" devices="tripinfo_veh18 routing_veh18 emissions_veh18" vType="authority@veh18" speedFactor="0.94" vaporized="">
        <emissions CO_abs="0" CO2_abs="0" HC_abs="0" PMx_abs="0" NOx_abs="0" fuel_abs="0" electricity_abs="0"/>
    </tripinfo>
    <tripinfo id="veh32" depart="277.00" departLane="-G_0" departPos="5.10" departSpeed="0.00" departDelay="0.00" arrival="1463.00" arrivalLane="E_0" arrivalPos="1742.80" arrivalSpeed="13.77" duration="1186.00" routeLength="15744.90" waitingTime="0.00" waitingCount="0" stopTime="0.00" timeLoss="58.01" rerouteNo="1" devices="tripinfo_veh32 routing_veh32 emissions_veh32" vType="authority@veh32" speedFactor="1.01" vaporized="">
        <emissions CO_abs="0" CO2_abs="0" HC_abs="0" PMx_abs="0" NOx_abs="0" fuel_abs="0" electricity_abs="0"/>
    </tripinfo>
    <tripinfo id="veh34" depart="285.00" departLane="-G_0" departPos="5.10" departSpeed="0.00" departDelay="0.00" arrival="1485.00" arrivalLane="E_0" arrivalPos="1742.80" arrivalSpeed="13.04" duration="1200.00" routeLength="15744.90" waitingTime="0.00" waitingCount="0" stopTime="0.00" timeLoss="60.13" rerouteNo="1" devices="tripinfo_veh34 routing_veh34 emissions_veh34" vType="authority@veh34" speedFactor="0.99" vaporized="">
        <emissions CO_abs="0" CO2_abs="0" HC_abs="0" PMx_abs="0" NOx_abs="0" fuel_abs="0" electricity_abs="0"/>
    </tripinfo>
    <tripinfo id="veh27" depart="226.00" departLane="-A_0" departPos="5.10" departSpeed="0.00" departDelay="0.00" arrival="1500.00" arrivalLane="C_0" arrivalPos="1742.80" arrivalSpeed="12.36" duration="1274.00" routeLength="15744.90" waitingTime="0.00" waitingCount="0" stopTime="0.00" timeLoss="78.68" rerouteNo="1" devices="tripinfo_veh27 routing_veh27 emissions_veh27" vType="authority@veh27" speedFactor="0.95" vaporized="">
        <emissions CO_abs="0" CO2_abs="0" HC_abs="0" PMx_abs="0" NOx_abs="0" fuel_abs="0" electricity_abs="0"/>
    </tripinfo>
    <tripinfo id="veh29" depart="244.00" departLane="-H_0" departPos="5.10" departSpeed="0.00" departDelay="0.00" arrival="1528.00" arrivalLane="F_0" arrivalPos="1742.80" arrivalSpeed="11.66" duration="1284.00" routeLength="15744.90" waitingTime="0.00" waitingCount="0" stopTime="0.00" timeLoss="66.03" rerouteNo="1" devices="tripinfo_veh29 routing_veh29 emissions_veh29" vType="authority@veh29" speedFactor="0.93" vaporized="">
        <emissions CO_abs="0" CO2_abs="0" HC_abs="0" PMx_abs="0" NOx_abs="0" fuel_abs="0" electricity_abs="0"/>
    </tripinfo>
    <tripinfo id="veh33" depart="282.00" departLane="-E_0" departPos="5.10" departSpeed="0.00" departDelay="0.00" arrival="1529.00" arrivalLane="G_0" arrivalPos="1742.80" arrivalSpeed="16.05" duration="1247.00" routeLength="19233.74" waitingTime="0.00" waitingCount="0" stopTime="0.00" timeLoss="62.66" rerouteNo="2" devices="tripinfo_veh33 routing_veh33 emissions_veh33" vType="authority@veh33" speedFactor="1.17" vaporized="">
        <emissions CO_abs="19373.445774" CO2_abs="2875491.939492" HC_abs="152.203880" PMx_abs="42.133885" NOx_abs="1069.332080" fuel_abs="1236.047553" electricity_abs="0"/>
    </tripinfo>
    <tripinfo id="veh35" depart="286.00" departLane="-H_0" departPos="5.10" departSpeed="0.00" departDelay="0.00" arrival="1529.00" arrivalLane="F_0" arrivalPos="1742.80" arrivalSpeed="13.54" duration="1243.00" routeLength="15744.90" waitingTime="0.00" waitingCount="0" stopTime="0.00" timeLoss="131.12" rerouteNo="1" devices="tripinfo_veh35 routing_veh35 emissions_veh35" vType="authority@veh35" speedFactor="1.02" vaporized="">
        <emissions CO_abs="0" CO2_abs="0" HC_abs="0" PMx_abs="0" NOx_abs="0" fuel_abs="0" electricity_abs="0"/>
    </tripinfo>
    <tripinfo id="veh46" depart="422.00" departLane="-H_0" departPos="5.10" departSpeed="0.00" departDelay="0.00" arrival="1617.00" arrivalLane="F_0" arrivalPos="1742.80" arrivalSpeed="13.54" duration="1195.00" routeLength="15744.90" waitingTime="0.00" waitingCount="0" stopTime="0.00" timeLoss="57.73" rerouteNo="1" devices="tripinfo_veh46 routing_veh46 emissions_veh46" vType="authority@veh46" speedFactor="1.00" vaporized="">
        <emissions CO_abs="0" CO2_abs="0" HC_abs="0" PMx_abs="0" NOx_abs="0" fuel_abs="0" electricity_abs="0"/>
    </tripinfo>
    <tripinfo id="veh21" depart="175.00" departLane="-D_0" departPos="5.10" departSpeed="0.00" departDelay="0.00" arrival="1636.00" arrivalLane="B_0" arrivalPos="1742.80" arrivalSpeed="13.90" duration="1461.00" routeLength="19233.74" waitingTime="0.00" waitingCount="0" stopTime="0.00" timeLoss="87.45" rerouteNo="3" devices="tripinfo_veh21 routing_veh21 emissions_veh21" vType="authority@veh21" speedFactor="1.01" vaporized="">
        <emissions CO_abs="24762.603582" CO2_abs="3062099.100722" HC_abs="183.094884" PMx_abs="42.733104" NOx_abs="1149.145970" fuel_abs="1316.266628" electricity_abs="0"/>
    </tripinfo>
    <tripinfo id="veh38" depart="345.00" departLane="-E_0" departPos="5.10" departSpeed="0.00" departDelay="0.00" arrival="1668.00" arrivalLane="G_0" arrivalPos="1742.80" arrivalSpeed="15.31" duration="1323.00" routeLength="19233.74" waitingTime="0.00" waitingCount="0" stopTime="0.00" timeLoss="64.14" rerouteNo="2" devices="tripinfo_veh38 routing_veh38 emissions_veh38" vType="authority@veh38" speedFactor="1.10" vaporized="">
        <emissions CO_abs="20106.371464" CO2_abs="2890123.484159" HC_abs="156.719211" PMx_abs="41.218995" NOx_abs="1076.378189" fuel_abs="1242.338583" electricity_abs="0"/>
    </tripinfo>
    <tripinfo id="veh24" depart="208.00" departLane="-C_0" departPos="5.10" departSpeed="0.00" departDelay="0.00" arrival="1673.00" arrivalLane="A_0" arrivalPos="1742.80" arrivalSpeed="10.90" duration="1465.00" routeLength="15744.90" waitingTime="0.00" waitingCount="0" stopTime="0.00" timeLoss="91.29" rerouteNo="1" devices="tripinfo_veh24 routing_veh24 emissions_veh24" vType="authority@veh24" speedFactor="0.83" vaporized="">
        <emissions CO_abs="0" CO2_abs="0" HC_abs="0" PMx_abs="0" NOx_abs="0" fuel_abs="0" electricity_abs="0"/>
    </tripinfo>
    <tripinfo id="veh28" depart="227.00" departLane="-C_0" departPos="5.10" departSpeed="0.00" departDelay="0.00" arrival="1674.00" arrivalLane="A_0" arrivalPos="1742.80" arrivalSpeed="12.28" duration="1447.00" routeLength="15744.90" waitingTime="0.00" waitingCount="0" stopTime="0.00" timeLoss="445.34" rerouteNo="1" devices="tripinfo_veh28 routing_veh28 emissions_veh28" vType="authority@veh28" speedFactor="1.13" vaporized="">
        <emissions CO_abs="0" CO2_abs="0" HC_abs="0" PMx_abs="0" NOx_abs="0" fuel_abs="0" electricity_abs="0"/>
    </tripinfo>
    <tripinfo id="veh31" depart="265.00" departLane="-C_0" departPos="5.10" departSpeed="0.00" departDelay="0.00" arrival="1676.00" arrivalLane="A_0" arrivalPos="1742.80" arrivalSpeed="15.47" duration="1411.00" routeLength="15744.90" waitingTime="0.00" waitingCount="0" stopTime="0.00" timeLoss="428.50" rerouteNo="1" devices="tripinfo_veh31 routing_veh31 emissions_veh31" vType="authority@veh31" speedFactor="1.15" vaporized="">
        <emissions CO_abs="0" CO2_abs="0" HC_abs="0" PMx_abs="0" NOx_abs="0" fuel_abs="0" electricity_abs="0"/>
    </tripinfo>
    <tripinfo id="veh39" depart="349.00" departLane="-G_0" departPos="5.10" departSpeed="0.00" departDelay="0.00" arrival="1680.00" arrivalLane="E_0" arrivalPos="1742.80" arrivalSpeed="11.24" duration="1331.00" routeLength="15744.90" waitingTime="0.00" waitingCount="0" stopTime="0.00" timeLoss="72.18" rerouteNo="1" devices="tripinfo_veh39 routing_veh39 emissions_veh39" vType="authority@veh39" speedFactor="0.90" vaporized="">
        <emissions CO_abs="0" CO2_abs="0" HC_abs="0" PMx_abs="0" NOx_abs="0" fuel_abs="0" electricity_abs="0"/>
    </tripinfo>
    <tripinfo id="veh17" depart="127.00" departLane="-B_0" departPos="5.10" departSpeed="0.00" departDelay="0.00" arrival="1700.00" arrivalLane="D_0" arrivalPos="1742.80" arrivalSpeed="12.89" duration="1573.00" routeLength="19233.74" waitingTime="1.00" waitingCount="1" stopTime="0.00" timeLoss="99.17" rerouteNo="3" devices="tripinfo_veh17 routing_veh17 emissions_veh17" vType="authority@veh17" speedFactor="0.94" vaporized="">
        <emissions CO_abs="27337.635659" CO2_abs="2956549.658612" HC_abs="192.656759" PMx_abs="40.982705" NOx_abs="1117.261057" fuel_abs="1270.897869" electricity_abs="0"/>
    </tripinfo>
    <tripinfo id="veh22" depart="185.00" departLane="-C_0" departPos="5.10" departSpeed="0.00" departDelay="0.00" arrival="1700.00" arrivalLane="A_0" arrivalPos="1742.80" arrivalSpeed="12.92" duration="1515.00" routeLength="19233.74" waitingTime="0.00" waitingCount="0" stopTime="0.00" timeLoss="91.34" rerouteNo="4" devices="tripinfo_veh22 routing_veh22 emissions_veh22" vType="authority@veh22" speedFactor="0.98" vaporized="">
        <emissions CO_abs="25857.420106" CO2_abs="3031334.018874" HC_abs="187.555374" PMx_abs="41.829403" NOx_abs="1139.163573" fuel_abs="1303.043489" electricity_abs="0"/>
    </tripinfo>
    <tripinfo id="veh47" depart="423.00" departLane="-A_0" departPos="5.10" departSpeed="0.00" departDelay="0.00" arrival="1763.00" arrivalLane="C_0" arrivalPos="1742.80" arrivalSpeed="12.46" duration="1340.00" routeLength="15744.90" waitingTime="0.00" waitingCount="0" stopTime="0.00" timeLoss="80.88" rerouteNo="1" devices="tripinfo_veh47 routing_veh47 emissions_veh47" vType="authority@veh47" speedFactor="0.90" vaporized="">
        <emissions CO_abs="0" CO2_abs="0" HC_abs="0" PMx_abs="0" NOx_abs="0" fuel_abs="0" electricity_abs="0"/>
    </tripinfo>
    <tripinfo id="veh16" depart="123.00" departLane="-G_0" departPos="5.10" departSpeed="0.00" departDelay="0.00" arrival="1802.00" arrivalLane="E_0" arrivalPos="1742.80" arrivalSpeed="11.04" duration="1679.00" routeLength="19233.74" waitingTime="0.00" waitingCount="0" stopTime="0.00" timeLoss="99.45" rerouteNo="2" devices="tripinfo_veh16 routing_veh16 emissions_veh16" vType="authority@veh16" speedFactor="0.88" vaporized="">
        <emissions CO_abs="30047.154369" CO2_abs="3059106.125212" HC_abs="206.800574" PMx_abs="40.133446" NOx_abs="1147.200233" fuel_abs="1314.987004" electricity_abs="0"/>
    </tripinfo>
    <tripinfo id="veh20" depart="170.00" departLane="-G_0" departPos="5.10" departSpeed="0.00" departDelay="0.00" arrival="1804.00" arrivalLane="E_0" arrivalPos="1742.80" arrivalSpeed="12.94" duration="1634.00" routeLength="19233.74" waitingTime="0.00" waitingCount="0" stopTime="0.00" timeLoss="270.46" rerouteNo="4" devices="tripinfo_veh20 routing_veh20 emissions_veh20" vType="authority@veh20" speedFactor="1.02" vaporized="">
        <emissions CO_abs="38640.662689" CO2_abs="3496213.773637" HC_abs="256.981216" PMx_abs="53.279290" NOx_abs="1361.650993" fuel_abs="1502.874088" electricity_abs="0"/>
    </tripinfo>
    <tripinfo id="veh5" depart="37.00" departLane="-F_0" departPos="5.10" departSpeed="0.00" departDelay="2.00" arrival="1814.00" arrivalLane="H_0" arrivalPos="1742.80" arrivalSpeed="11.41" duration="1777.00" routeLength="19233.74" waitingTime="0.00" waitingCount="0" stopTime="0.00" timeLoss="107.31" rerouteNo="2" devices="tripinfo_veh5 routing_veh5 emissions_veh5" vType="authority@veh5" speedFactor="0.83" vaporized="">
        <emissions CO_abs="34037.794268" CO2_abs="3129919.435613" HC_abs="226.293937" PMx_abs="40.502012" NOx_abs="1176.026682" fuel_abs="1345.429867" electricity_abs="0"/>
    </tripinfo>
    <tripinfo id="veh9" depart="85.00" departLane="-A_0" departPos="5.10" departSpeed="0.00" departDelay="0.00" arrival="1817.00" arrivalLane="C_0" arrivalPos="1742.80" arrivalSpeed="10.71" duration="1732.00" routeLength="19233.74" waitingTime="0.00" waitingCount="0" stopTime="0.00" timeLoss="112.94" rerouteNo="4" devices="tripinfo_veh9 routing_veh9 emissions_veh9" vType="authority@veh9" speedFactor="0.86" vaporized="">
        <emissions CO_abs="34072.617376" CO2_abs="3160585.183403" HC_abs="227.520467" PMx_abs="42.628509" NOx_abs="1196.970495" fuel_abs="1358.609156" electricity_abs="0"/>
    </tripinfo>
    <tripinfo id="veh42" depart="378.00" departLane="-A_0" departPos="5.10" departSpeed="0.00" departDelay="0.00" arrival="1819.00" arrivalLane="C_0" arrivalPos="1742.80" arrivalSpeed="13.93" duration="1441.00" routeLength="19233.74" waitingTime="0.00" waitingCount="0" stopTime="0.00" timeLoss="169.33" rerouteNo="2" devices="tripinfo_veh42 routing_veh42 emissions_veh42" vType="authority@veh42" speedFactor="1.09" vaporized="">
        <emissions CO_abs="29502.479496" CO2_abs="3197158.517817" HC_abs="207.235204" PMx_abs="48.380821" NOx_abs="1225.457539" fuel_abs="1374.319967" electricity_abs="0"/>
    </tripinfo>
    <tripinfo id="veh53" depart="489.00" departLane="-E_0" departPos="5.10" departSpeed="0.00" departDelay="0.00" arrival="1822.00" arrivalLane="G_0" arrivalPos="1742.80" arrivalSpeed="14.05" duration="1333.00" routeLength="19233.74" waitingTime="0.00" waitingCount="0" stopTime="0.00" timeLoss="66.35" rerouteNo="2" devices="tripinfo_veh53 routing_veh53 emissions_veh53" vType="authority@veh53" speedFactor="1.10" vaporized="">
        <emissions CO_abs="20074.783876" CO2_abs="2873391.837059" HC_abs="156.375896" PMx_abs="40.807023" NOx_abs="1069.854094" fuel_abs="1235.146669" electricity_abs="0"/>
    </tripinfo>
    <tripinfo id="veh44" depart="410.00" departLane="-B_0" departPos="5.10" departSpeed="0.00" departDelay="0.00" arrival="1823.00" arrivalLane="D_0" arrivalPos="1742.80" arrivalSpeed="13.20" duration="1413.00" routeLength="19233.74" waitingTime="0.00" waitingCount="0" stopTime="0.00" timeLoss="82.81" rerouteNo="3" devices="tripinfo_veh44 routing_veh44 emissions_veh44" vType="authority@veh44" speedFactor="1.04" vaporized="">
        <emissions CO_abs="23715.819914" CO2_abs="3019384.816134" HC_abs="176.970812" PMx_abs="42.963141" NOx_abs="1134.579225" fuel_abs="1297.903993" electricity_abs="0"/>
    </tripinfo>
    <tripinfo id="veh45" depart="420.00" departLane="-B_0" departPos="5.10" departSpeed="0.00" departDelay="0.00" arrival="1825.00" arrivalLane="D_0" arrivalPos="1742.80" arrivalSpeed="14.13" duration="1405.00" routeLength="19233.74" waitingTime="0.00" waitingCount="0" stopTime="0.00" timeLoss="129.21" rerouteNo="3" devices="tripinfo_veh45 routing_veh45 emissions_veh45" vType="authority@veh45" speedFactor="1.09" vaporized="">
        <emissions CO_abs="30473.877489" CO2_abs="3335459.046386" HC_abs="215.698763" PMx_abs="51.664024" NOx_abs="1285.482458" fuel_abs="1433.767486" electricity_abs="0"/>
    </tripinfo>
    <tripinfo id="veh56" depart="500.00" departLane="-A_0" departPos="5.10" departSpeed="0.00" departDelay="0.00" arrival="1843.00" arrivalLane="C_0" arrivalPos="1742.80" arrivalSpeed="11.33" duration="1343.00" routeLength="15744.90" waitingTime="0.00" waitingCount="0" stopTime="0.00" timeLoss="81.57" rerouteNo="5" devices="tripinfo_veh56 routing_veh56 emissions_veh56" vType="authority@veh56" speedFactor="0.90" vaporized="">
        <emissions CO_abs="0" CO2_abs="0" HC_abs="0" PMx_abs="0" NOx_abs="0" fuel_abs="0" electricity_abs="0"/>
    </tripinfo>
    <tripinfo id="veh26" depart="222.00" departLane="-C_0" departPos="5.10" departSpeed="0.00" departDelay="0.00" arrival="1854.00" arrivalLane="A_0" arrivalPos="1742.80" arrivalSpeed="12.58" duration="1632.00" routeLength="19233.74" waitingTime="0.00" waitingCount="0" stopTime="0.00" timeLoss="119.20" rerouteNo="3" devices="tripinfo_veh26 routing_veh26 emissions_veh26" vType="authority@veh26" speedFactor="0.92" vaporized="">
        <emissions CO_abs="31467.322756" CO2_abs="3169589.120846" HC_abs="216.287441" PMx_abs="44.078300" NOx_abs="1203.330337" fuel_abs="1362.475834" electricity_abs="0"/>
    </tripinfo>
    <tripinfo id="veh36" depart="293.00" departLane="-C_0" departPos="5.10" departSpeed="0.00" departDelay="0.00" arrival="1856.00" arrivalLane="A_0" arrivalPos="1742.80" arrivalSpeed="12.89" duration="1563.00" routeLength="19233.74" waitingTime="0.00" waitingCount="0" stopTime="0.00" timeLoss="136.52" rerouteNo="3" devices="tripinfo_veh36 routing_veh36 emissions_veh36" vType="authority@veh36" speedFactor="0.97" vaporized="">
        <emissions CO_abs="33179.900308" CO2_abs="3335982.630360" HC_abs="228.447144" PMx_abs="49.375081" NOx_abs="1283.085775" fuel_abs="1433.997310" electricity_abs="0"/>
    </tripinfo>
    <tripinfo id="veh40" depart="351.00" departLane="-C_0" departPos="5.10" departSpeed="0.00" departDelay="0.00" arrival="1858.00" arrivalLane="A_0" arrivalPos="1742.80" arrivalSpeed="14.18" duration="1507.00" routeLength="19233.74" waitingTime="0.00" waitingCount="0" stopTime="0.00" timeLoss="160.00" rerouteNo="5" devices="tripinfo_veh40 routing_veh40 emissions_veh40" vType="authority@veh40" speedFactor="1.03" vaporized="">
        <emissions CO_abs="35148.220890" CO2_abs="3465785.817092" HC_abs="240.560341" PMx_abs="53.826338" NOx_abs="1346.991063" fuel_abs="1489.791081" electricity_abs="0"/>
    </tripinfo>
    <tripinfo id="veh43" depart="390.00" departLane="-C_0" departPos="5.10" departSpeed="0.00" departDelay="0.00" arrival="1859.00" arrivalLane="A_0" arrivalPos="1742.80" arrivalSpeed="13.41" duration="1469.00" routeLength="19233.74" waitingTime="0.00" waitingCount="0" stopTime="0.00" timeLoss="131.71" rerouteNo="3" devices="tripinfo_veh43 routing_veh43 emissions_veh43" vType="authority@veh43" speedFactor="1.04" vaporized="">
        <emissions CO_abs="31479.366539" CO2_abs="3296123.663752" HC_abs="219.376001" PMx_abs="50.309476" NOx_abs="1270.677922" fuel_abs="1416.860750" electricity_abs="0"/>
    </tripinfo>
    <tripinfo id="veh23" depart="198.00" departLane="-D_0" departPos="5.10" departSpeed="0.00" departDelay="0.00" arrival="1860.00" arrivalLane="B_0" arrivalPos="1742.80" arrivalSpeed="11.55" duration="1662.00" routeLength="19233.74" waitingTime="0.00" waitingCount="0" stopTime="0.00" timeLoss="101.87" rerouteNo="3" devices="tripinfo_veh23 routing_veh23 emissions_veh23" vType="authority@veh23" speedFactor="0.89" vaporized="">
        <emissions CO_abs="30969.153012" CO2_abs="3082170.542847" HC_abs="211.798828" PMx_abs="41.968891" NOx_abs="1165.897314" fuel_abs="1324.899710" electricity_abs="0"/>
    </tripinfo>
    <tripinfo id="veh60" depart="524.00" departLane="-E_0" departPos="5.10" departSpeed="0.00" departDelay="0.00" arrival="1877.00" arrivalLane="G_0" arrivalPos="1742.80" arrivalSpeed="14.89" duration="1353.00" routeLength="19233.74" waitingTime="0.00" waitingCount="0" stopTime="0.00" timeLoss="70.38" rerouteNo="1" devices="tripinfo_veh60 routing_veh60 emissions_veh60" vType="authority@veh60" speedFactor="1.08" vaporized="">
        <emissions CO_abs="0" CO2_abs="0" HC_abs="0" PMx_abs="0" NOx_abs="0" fuel_abs="0" electricity_abs="0"/>
    </tripinfo>
    <tripinfo id="veh49" depart="472.00" departLane="-H_0" departPos="5.10" departSpeed="0.00" departDelay="0.00" arrival="1884.00" arrivalLane="F_0" arrivalPos="1742.80" arrivalSpeed="11.01" duration="1412.00" routeLength="15744.90" waitingTime="0.00" waitingCount="0" stopTime="0.00" timeLoss="78.73" rerouteNo="1" devices="tripinfo_veh49 routing_veh49 emissions_veh49" vType="authority@veh49" speedFactor="0.85" vaporized="">