<?xml version="1.0" encoding="UTF-8"?>

<!-- generated on 02/08/21 04:52:24 by Eclipse SUMO GUI Version 1.7.0
<configuration xmlns:xsi="http://www.w3.org/2001/XMLSchema-instance" xsi:noNamespaceSchemaLocation="http://sumo.dlr.de/xsd/sumoConfiguration.xsd">

    <input>
        <net-file value="caseVE.net.xml"/>
        <route-files value="caseVE.rou.xml"/>
        <additional-files value="caseVE.add.xml"/>
    </input>

    <output>
        <emission-output value="emissionOutput.xml"/>
        <tripinfo-output value="tripinfo.xml"/>
    </output>

    <processing>
        <ignore-route-errors value="true"/>
    </processing>

    <traci_server>
        <remote-port value="51728"/>
    </traci_server>

</configuration>
-->

<tripinfos xmlns:xsi="http://www.w3.org/2001/XMLSchema-instance" xsi:noNamespaceSchemaLocation="http://sumo.dlr.de/xsd/tripinfo_file.xsd">
    <tripinfo id="veh3" depart="24.00" departLane="-H_0" departPos="5.10" departSpeed="0.00" departDelay="0.00" arrival="1121.00" arrivalLane="F_0" arrivalPos="1742.80" arrivalSpeed="13.87" duration="1097.00" routeLength="15744.90" waitingTime="0.00" waitingCount="0" stopTime="0.00" timeLoss="49.61" rerouteNo="1" devices="tripinfo_veh3 routing_veh3 emissions_veh3" vType="authority@veh3" speedFactor="1.08" vaporized="">
        <emissions CO_abs="0" CO2_abs="0" HC_abs="0" PMx_abs="0" NOx_abs="0" fuel_abs="0" electricity_abs="0"/>
    </tripinfo>
    <tripinfo id="veh0" depart="3.00" departLane="-D_0" departPos="5.10" departSpeed="0.00" departDelay="0.00" arrival="1142.00" arrivalLane="B_0" arrivalPos="1742.80" arrivalSpeed="14.44" duration="1139.00" routeLength="15744.90" waitingTime="0.00" waitingCount="0" stopTime="0.00" timeLoss="68.71" rerouteNo="1" devices="tripinfo_veh0 routing_veh0 emissions_veh0" vType="authority@veh0" speedFactor="1.06" vaporized="">
        <emissions CO_abs="19447.158444" CO2_abs="2436300.285993" HC_abs="144.306440" PMx_abs="35.341131" NOx_abs="918.918061" fuel_abs="1047.260292" electricity_abs="0"/>
    </tripinfo>
    <tripinfo id="veh6" depart="38.00" departLane="-E_0" departPos="5.10" departSpeed="0.00" departDelay="0.00" arrival="1176.00" arrivalLane="G_0" arrivalPos="1742.80" arrivalSpeed="14.16" duration="1138.00" routeLength="15744.90" waitingTime="0.00" waitingCount="0" stopTime="0.00" timeLoss="53.18" rerouteNo="1" devices="tripinfo_veh6 routing_veh6 emissions_veh6" vType="authority@veh6" speedFactor="1.05" vaporized="">
        <emissions CO_abs="0" CO2_abs="0" HC_abs="0" PMx_abs="0" NOx_abs="0" fuel_abs="0" electricity_abs="0"/>
    </tripinfo>
    <tripinfo id="veh1" depart="7.00" departLane="-F_0" departPos="5.10" departSpeed="0.00" departDelay="0.00" arrival="1282.00" arrivalLane="H_0" arrivalPos="1742.80" arrivalSpeed="12.00" duration="1275.00" routeLength="15744.90" waitingTime="0.00" waitingCount="0" stopTime="0.00" timeLoss="66.26" rerouteNo="1" devices="tripinfo_veh1 routing_veh1 emissions_veh1" vType="authority@veh1" speedFactor="0.94" vaporized="">
        <emissions CO_abs="0" CO2_abs="0" HC_abs="0" PMx_abs="0" NOx_abs="0" fuel_abs="0" electricity_abs="0"/>
    </tripinfo>
    <tripinfo id="veh2" depart="10.00" departLane="-F_0" departPos="5.10" departSpeed="0.00" departDelay="3.00" arrival="1283.00" arrivalLane="H_0" arrivalPos="1742.80" arrivalSpeed="13.67" duration="1273.00" routeLength="15744.90" waitingTime="0.00" waitingCount="0" stopTime="0.00" timeLoss="151.06" rerouteNo="1" devices="tripinfo_veh2 routing_veh2 emissions_veh2" vType="authority@veh2" speedFactor="1.01" vaporized="">
        <emissions CO_abs="29857.100379" CO2_abs="2881508.006979" HC_abs="203.143570" PMx_abs="44.558662" NOx_abs="1122.668708" fuel_abs="1238.635869" electricity_abs="0"/>
    </tripinfo>
    <tripinfo id="veh4" depart="34.00" departLane="-F_0" departPos="5.10" departSpeed="0.00" departDelay="0.00" arrival="1285.00" arrivalLane="H_0" arrivalPos="1742.80" arrivalSpeed="13.82" duration="1251.00" routeLength="15744.90" waitingTime="0.00" waitingCount="0" stopTime="0.00" timeLoss="150.49" rerouteNo="1" devices="tripinfo_veh4 routing_veh4 emissions_veh4" vType="authority@veh4" speedFactor="1.03" vaporized="">
        <emissions CO_abs="0" CO2_abs="0" HC_abs="0" PMx_abs="0" NOx_abs="0" fuel_abs="0" electricity_abs="0"/>
    </tripinfo>
    <tripinfo id="veh8" depart="66.00" departLane="-E_0" departPos="5.10" departSpeed="0.00" departDelay="0.00" arrival="1341.00" arrivalLane="G_0" arrivalPos="1742.80" arrivalSpeed="12.04" duration="1275.00" routeLength="15744.90" waitingTime="0.00" waitingCount="0" stopTime="0.00" timeLoss="65.65" rerouteNo="1" devices="tripinfo_veh8 routing_veh8 emissions_veh8" vType="authority@veh8" speedFactor="0.94" vaporized="">
        <emissions CO_abs="0" CO2_abs="0" HC_abs="0" PMx_abs="0" NOx_abs="0" fuel_abs="0" electricity_abs="0"/>
    </tripinfo>
    <tripinfo id="veh11" depart="103.00" departLane="-E_0" departPos="5.10" departSpeed="0.00" departDelay="0.00" arrival="1342.00" arrivalLane="G_0" arrivalPos="1742.80" arrivalSpeed="13.35" duration="1239.00" routeLength="15744.90" waitingTime="0.00" waitingCount="0" stopTime="0.00" timeLoss="134.31" rerouteNo="1" devices="tripinfo_veh11 routing_veh11 emissions_veh11" vType="authority@veh11" speedFactor="1.03" vaporized="">
        <emissions CO_abs="0" CO2_abs="0" HC_abs="0" PMx_abs="0" NOx_abs="0" fuel_abs="0" electricity_abs="0"/>
    </tripinfo>
    <tripinfo id="veh7" depart="39.00" departLane="-B_0" departPos="5.10" departSpeed="0.00" departDelay="0.00" arrival="1402.00" arrivalLane="D_0" arrivalPos="1742.80" arrivalSpeed="12.19" duration="1363.00" routeLength="15744.90" waitingTime="0.00" waitingCount="0" stopTime="0.00" timeLoss="83.41" rerouteNo="1" devices="tripinfo_veh7 routing_veh7 emissions_veh7" vType="authority@veh7" speedFactor="0.89" vaporized="">
        <emissions CO_abs="26293.603290" CO2_abs="2597506.895828" HC_abs="179.402555" PMx_abs="35.557095" NOx_abs="984.194507" fuel_abs="1116.562364" electricity_abs="0"/>
    </tripinfo>
    <tripinfo id="veh12" depart="105.00" departLane="-B_0" departPos="5.10" departSpeed="0.00" departDelay="0.00" arrival="1404.00" arrivalLane="D_0" arrivalPos="1742.80" arrivalSpeed="14.13" duration="1299.00" routeLength="15744.90" waitingTime="0.00" waitingCount="0" stopTime="0.00" timeLoss="215.84" rerouteNo="1" devices="tripinfo_veh12 routing_veh12 emissions_veh12" vType="authority@veh12" speedFactor="1.05" vaporized="">
        <emissions CO_abs="31208.508828" CO2_abs="2891547.614794" HC_abs="209.031669" PMx_abs="44.598437" NOx_abs="1126.643991" fuel_abs="1242.952541" electricity_abs="0"/>
    </tripinfo>
    <tripinfo id="veh13" depart="108.00" departLane="-B_0" departPos="5.10" departSpeed="0.00" departDelay="1.00" arrival="1405.00" arrivalLane="D_0" arrivalPos="1742.80" arrivalSpeed="15.56" duration="1297.00" routeLength="15744.90" waitingTime="0.00" waitingCount="0" stopTime="0.00" timeLoss="287.51" rerouteNo="1" devices="tripinfo_veh13 routing_veh13 emissions_veh13" vType="authority@veh13" speedFactor="1.12" vaporized="">
        <emissions CO_abs="40204.519368" CO2_abs="3335125.132888" HC_abs="261.261422" PMx_abs="56.304492" NOx_abs="1335.667810" fuel_abs="1433.623250" electricity_abs="0"/>
    </tripinfo>
    <tripinfo id="veh30" depart="246.00" departLane="-E_0" departPos="5.10" departSpeed="0.00" departDelay="0.00" arrival="1484.00" arrivalLane="G_0" arrivalPos="1742.80" arrivalSpeed="16.30" duration="1238.00" routeLength="19233.74" waitingTime="0.00" waitingCount="0" stopTime="0.00" timeLoss="60.80" rerouteNo="5" devices="tripinfo_veh30 routing_veh30 emissions_veh30" vType="authority@veh30" speedFactor="1.18" vaporized="">
        <emissions CO_abs="0" CO2_abs="0" HC_abs="0" PMx_abs="0" NOx_abs="0" fuel_abs="0" electricity_abs="0"/>
    </tripinfo>
    <tripinfo id="veh33" depart="282.00" departLane="-E_0" departPos="5.10" departSpeed="0.00" departDelay="0.00" arrival="1528.00" arrivalLane="G_0" arrivalPos="1742.80" arrivalSpeed="16.13" duration="1246.00" routeLength="19233.74" waitingTime="0.00" waitingCount="0" stopTime="0.00" timeLoss="62.46" rerouteNo="5" devices="tripinfo_veh33 routing_veh33 emissions_veh33" vType="authority@veh33" speedFactor="1.17" vaporized="">
        <emissions CO_abs="18752.508366" CO2_abs="2818850.969837" HC_abs="148.236041" PMx_abs="41.121188" NOx_abs="1046.594788" fuel_abs="1211.700243" electricity_abs="0"/>
    </tripinfo>
    <tripinfo id="veh14" depart="117.00" departLane="-C_0" departPos="5.10" departSpeed="0.00" departDelay="0.00" arrival="1606.00" arrivalLane="A_0" arrivalPos="1742.80" arrivalSpeed="13.31" duration="1489.00" routeLength="19233.74" waitingTime="0.00" waitingCount="0" stopTime="0.00" timeLoss="88.99" rerouteNo="3" devices="tripinfo_veh14 routing_veh14 emissions_veh14" vType="authority@veh14" speedFactor="0.99" vaporized="">
        <emissions CO_abs="0" CO2_abs="0" HC_abs="0" PMx_abs="0" NOx_abs="0" fuel_abs="0" electricity_abs="0"/>
    </tripinfo>
    <tripinfo id="veh21" depart="175.00" departLane="-D_0" departPos="5.10" departSpeed="0.00" departDelay="0.00" arrival="1638.00" arrivalLane="B_0" arrivalPos="1742.80" arrivalSpeed="13.86" duration="1463.00" routeLength="19233.74" waitingTime="0.00" waitingCount="0" stopTime="0.00" timeLoss="89.65" rerouteNo="7" devices="tripinfo_veh21 routing_veh21 emissions_veh21" vType="authority@veh21" speedFactor="1.01" vaporized="">
        <emissions CO_abs="25363.173702" CO2_abs="3074051.416589" HC_abs="186.217164" PMx_abs="43.425373" NOx_abs="1157.739814" fuel_abs="1321.403984" electricity_abs="0"/>
    </tripinfo>
    <tripinfo id="veh38" depart="345.00" departLane="-E_0" departPos="5.10" departSpeed="0.00" departDelay="0.00" arrival="1671.00" arrivalLane="G_0" arrivalPos="1742.80" arrivalSpeed="14.32" duration="1326.00" routeLength="19233.74" waitingTime="0.00" waitingCount="0" stopTime="0.00" timeLoss="67.27" rerouteNo="5" devices="tripinfo_veh38 routing_veh38 emissions_veh38" vType="authority@veh38" speedFactor="1.10" vaporized="">
        <emissions CO_abs="20492.295036" CO2_abs="2873664.428377" HC_abs="157.988385" PMx_abs="41.274225" NOx_abs="1073.034812" fuel_abs="1235.263413" electricity_abs="0"/>
    </tripinfo>
    <tripinfo id="veh17" depart="127.00" departLane="-B_0" departPos="5.10" departSpeed="0.00" departDelay="0.00" arrival="1696.00" arrivalLane="D_0" arrivalPos="1742.80" arrivalSpeed="11.90" duration="1569.00" routeLength="19233.74" waitingTime="0.00" waitingCount="0" stopTime="0.00" timeLoss="95.14" rerouteNo="4" devices="tripinfo_veh17 routing_veh17 emissions_veh17" vType="authority@veh17" speedFactor="0.94" vaporized="">
        <emissions CO_abs="26655.197920" CO2_abs="2974484.119054" HC_abs="189.901503" PMx_abs="40.637362" NOx_abs="1119.284324" fuel_abs="1278.607428" electricity_abs="0"/>
    </tripinfo>
    <tripinfo id="veh22" depart="185.00" departLane="-C_0" departPos="5.10" departSpeed="0.00" departDelay="0.00" arrival="1705.00" arrivalLane="A_0" arrivalPos="1742.80" arrivalSpeed="12.36" duration="1520.00" routeLength="19233.74" waitingTime="0.00" waitingCount="0" stopTime="0.00" timeLoss="96.24" rerouteNo="4" devices="tripinfo_veh22 routing_veh22 emissions_veh22" vType="authority@veh22" speedFactor="0.98" vaporized="">
        <emissions CO_abs="26890.345994" CO2_abs="3048925.760544" HC_abs="192.873285" PMx_abs="42.793708" NOx_abs="1151.512292" fuel_abs="1310.605004" electricity_abs="0"/>
    </tripinfo>
    <tripinfo id="veh15" depart="122.00" departLane="-H_0" departPos="5.10" departSpeed="0.00" departDelay="0.00" arrival="1709.00" arrivalLane="F_0" arrivalPos="1742.80" arrivalSpeed="11.79" duration="1587.00" routeLength="19233.74" waitingTime="0.00" waitingCount="0" stopTime="0.00" timeLoss="90.50" rerouteNo="2" devices="tripinfo_veh15 routing_veh15 emissions_veh15" vType="authority@veh15" speedFactor="0.93" vaporized="">
        <emissions CO_abs="0" CO2_abs="0" HC_abs="0" PMx_abs="0" NOx_abs="0" fuel_abs="0" electricity_abs="0"/>
    </tripinfo>
    <tripinfo id="veh35" depart="286.00" departLane="-H_0" departPos="5.10" departSpeed="0.00" departDelay="0.00" arrival="1751.00" arrivalLane="F_0" arrivalPos="1742.80" arrivalSpeed="13.82" duration="1465.00" routeLength="19233.74" waitingTime="0.00" waitingCount="0" stopTime="0.00" timeLoss="104.50" rerouteNo="8" devices="tripinfo_veh35 routing_veh35 emissions_veh35" vType="authority@veh35" speedFactor="1.02" vaporized="">
        <emissions CO_abs="0" CO2_abs="0" HC_abs="0" PMx_abs="0" NOx_abs="0" fuel_abs="0" electricity_abs="0"/>
    </tripinfo>
    <tripinfo id="veh34" depart="285.00" departLane="-G_0" departPos="5.10" departSpeed="0.00" departDelay="0.00" arrival="1760.00" arrivalLane="E_0" arrivalPos="1742.80" arrivalSpeed="12.84" duration="1475.00" routeLength="19233.74" waitingTime="0.00" waitingCount="0" stopTime="0.00" timeLoss="78.93" rerouteNo="5" devices="tripinfo_veh34 routing_veh34 emissions_veh34" vType="authority@veh34" speedFactor="0.99" vaporized="">
        <emissions CO_abs="0" CO2_abs="0" HC_abs="0" PMx_abs="0" NOx_abs="0" fuel_abs="0" electricity_abs="0"/>
    </tripinfo>
    <tripinfo id="veh16" depart="123.00" departLane="-G_0" departPos="5.10" departSpeed="0.00" departDelay="0.00" arrival="1801.00" arrivalLane="E_0" arrivalPos="1742.80" arrivalSpeed="11.19" duration="1678.00" routeLength="19233.74" waitingTime="0.00" waitingCount="0" stopTime="0.00" timeLoss="97.81" rerouteNo="2" devices="tripinfo_veh16 routing_veh16 emissions_veh16" vType="authority@veh16" speedFactor="0.88" vaporized="">
        <emissions CO_abs="30207.941005" CO2_abs="3059139.001199" HC_abs="207.610631" PMx_abs="40.575050" NOx_abs="1150.264864" fuel_abs="1315.000578" electricity_abs="0"/>
    </tripinfo>
    <tripinfo id="veh20" depart="170.00" departLane="-G_0" departPos="5.10" departSpeed="0.00" departDelay="0.00" arrival="1803.00" arrivalLane="E_0" arrivalPos="1742.80" arrivalSpeed="14.11" duration="1633.00" routeLength="19233.74" waitingTime="0.00" waitingCount="0" stopTime="0.00" timeLoss="269.17" rerouteNo="2" devices="tripinfo_veh20 routing_veh20 emissions_veh20" vType="authority@veh20" speedFactor="1.02" vaporized="">
        <emissions CO_abs="39052.112308" CO2_abs="3552863.657529" HC_abs="260.146013" PMx_abs="53.950619" NOx_abs="1382.216117" fuel_abs="1527.225609" electricity_abs="0"/>
    </tripinfo>
    <tripinfo id="veh32" depart="277.00" departLane="-G_0" departPos="5.10" departSpeed="0.00" departDelay="0.00" arrival="1804.00" arrivalLane="E_0" arrivalPos="1742.80" arrivalSpeed="13.55" duration="1527.00" routeLength="19233.74" waitingTime="0.00" waitingCount="0" stopTime="0.00" timeLoss="146.00" rerouteNo="4" devices="tripinfo_veh32 routing_veh32 emissions_veh32" vType="authority@veh32" speedFactor="1.01" vaporized="">
        <emissions CO_abs="0" CO2_abs="0" HC_abs="0" PMx_abs="0" NOx_abs="0" fuel_abs="0" electricity_abs="0"/>
    </tripinfo>
    <tripinfo id="veh9" depart="85.00" departLane="-A_0" departPos="5.10" departSpeed="0.00" departDelay="0.00" arrival="1813.00" arrivalLane="C_0" arrivalPos="1742.80" arrivalSpeed="11.36" duration="1728.00" routeLength="19233.74" waitingTime="0.00" waitingCount="0" stopTime="0.00" timeLoss="107.98" rerouteNo="3" devices="tripinfo_veh9 routing_veh9 emissions_veh9" vType="authority@veh9" speedFactor="0.86" vaporized="">
        <emissions CO_abs="33375.475463" CO2_abs="3103295.410912" HC_abs="223.084868" PMx_abs="42.118664" NOx_abs="1177.137370" fuel_abs="1333.982088" electricity_abs="0"/>
    </tripinfo>
    <tripinfo id="veh5" depart="37.00" departLane="-F_0" departPos="5.10" departSpeed="0.00" departDelay="2.00" arrival="1814.00" arrivalLane="H_0" arrivalPos="1742.80" arrivalSpeed="10.79" duration="1777.00" routeLength="19233.74" waitingTime="0.00" waitingCount="0" stopTime="0.00" timeLoss="106.48" rerouteNo="3" devices="tripinfo_veh5 routing_veh5 emissions_veh5" vType="authority@veh5" speedFactor="0.83" vaporized="">
        <emissions CO_abs="34062.752431" CO2_abs="3115683.100053" HC_abs="226.146009" PMx_abs="40.685759" NOx_abs="1173.237303" fuel_abs="1339.309796" electricity_abs="0"/>
    </tripinfo>
    <tripinfo id="veh10" depart="93.00" departLane="-A_0" departPos="5.10" departSpeed="0.00" departDelay="0.00" arrival="1815.00" arrivalLane="C_0" arrivalPos="1742.80" arrivalSpeed="15.00" duration="1722.00" routeLength="19233.74" waitingTime="0.00" waitingCount="0" stopTime="0.00" timeLoss="449.83" rerouteNo="3" devices="tripinfo_veh10 routing_veh10 emissions_veh10" vType="authority@veh10" speedFactor="1.09" vaporized="">
        <emissions CO_abs="0" CO2_abs="0" HC_abs="0" PMx_abs="0" NOx_abs="0" fuel_abs="0" electricity_abs="0"/>
    </tripinfo>
    <tripinfo id="veh19" depart="166.00" departLane="-F_0" departPos="5.10" departSpeed="0.00" departDelay="0.00" arrival="1815.00" arrivalLane="H_0" arrivalPos="1742.80" arrivalSpeed="13.43" duration="1649.00" routeLength="19233.74" waitingTime="0.00" waitingCount="0" stopTime="0.00" timeLoss="450.60" rerouteNo="3" devices="tripinfo_veh19 routing_veh19 emissions_veh19" vType="authority@veh19" speedFactor="1.16" vaporized="">
        <emissions CO_abs="0" CO2_abs="0" HC_abs="0" PMx_abs="0" NOx_abs="0" fuel_abs="0" electricity_abs="0"/>
    </tripinfo>
    <tripinfo id="veh18" depart="154.00" departLane="-A_0" departPos="5.10" departSpeed="0.00" departDelay="0.00" arrival="1817.00" arrivalLane="C_0" arrivalPos="1742.80" arrivalSpeed="11.77" duration="1663.00" routeLength="19233.74" waitingTime="0.00" waitingCount="0" stopTime="0.00" timeLoss="181.03" rerouteNo="3" devices="tripinfo_veh18 routing_veh18 emissions_veh18" vType="authority@veh18" speedFactor="0.94" vaporized="">
        <emissions CO_abs="0" CO2_abs="0" HC_abs="0" PMx_abs="0" NOx_abs="0" fuel_abs="0" electricity_abs="0"/>
    </tripinfo>
    <tripinfo id="veh37" depart="313.00" departLane="-F_0" departPos="5.10" departSpeed="0.00" departDelay="0.00" arrival="1817.00" arrivalLane="H_0" arrivalPos="1742.80" arrivalSpeed="15.15" duration="1504.00" routeLength="19233.74" waitingTime="0.00" waitingCount="0" stopTime="0.00" timeLoss="327.36" rerouteNo="3" devices="tripinfo_veh37 routing_veh37 emissions_veh37" vType="authority@veh37" speedFactor="1.18" vaporized="">
        <emissions CO_abs="0" CO2_abs="0" HC_abs="0" PMx_abs="0" NOx_abs="0" fuel_abs="0" electricity_abs="0"/>
    </tripinfo>
    <tripinfo id="veh27" depart="226.00" departLane="-A_0" departPos="5.10" departSpeed="0.00" departDelay="0.00" arrival="1818.00" arrivalLane="C_0" arrivalPos="1742.80" arrivalSpeed="12.74" duration="1592.00" routeLength="19233.74" waitingTime="0.00" waitingCount="0" stopTime="0.00" timeLoss="129.64" rerouteNo="4" devices="tripinfo_veh27 routing_veh27 emissions_veh27" vType="authority@veh27" speedFactor="0.95" vaporized="">
        <emissions CO_abs="0" CO2_abs="0" HC_abs="0" PMx_abs="0" NOx_abs="0" fuel_abs="0" electricity_abs="0"/>
    </tripinfo>
    <tripinfo id="veh42" depart="378.00" departLane="-A_0" departPos="5.10" departSpeed="0.00" departDelay="0.00" arrival="1820.00" arrivalLane="C_0" arrivalPos="1742.80" arrivalSpeed="13.96" duration="1442.00" routeLength="19233.74" waitingTime="0.00" waitingCount="0" stopTime="0.00" timeLoss="170.32" rerouteNo="6" devices="tripinfo_veh42 routing_veh42 emissions_veh42" vType="authority@veh42" speedFactor="1.09" vaporized="">
        <emissions CO_abs="33002.230300" CO2_abs="3425210.709873" HC_abs="228.859377" PMx_abs="53.252068" NOx_abs="1324.418874" fuel_abs="1472.348559" electricity_abs="0"/>
    </tripinfo>
    <tripinfo id="veh29" depart="244.00" departLane="-H_0" departPos="5.10" departSpeed="0.00" departDelay="0.00" arrival="1823.00" arrivalLane="F_0" arrivalPos="1742.80" arrivalSpeed="12.37" duration="1579.00" routeLength="19233.74" waitingTime="0.00" waitingCount="0" stopTime="0.00" timeLoss="89.13" rerouteNo="5" devices="tripinfo_veh29 routing_veh29 emissions_veh29" vType="authority@veh29" speedFactor="0.93" vaporized="">
        <emissions CO_abs="0" CO2_abs="0" HC_abs="0" PMx_abs="0" NOx_abs="0" fuel_abs="0" electricity_abs="0"/>
    </tripinfo>
    <tripinfo id="veh53" depart="489.00" departLane="-E_0" departPos="5.10" departSpeed="0.00" departDelay="0.00" arrival="1823.00" arrivalLane="G_0" arrivalPos="1742.80" arrivalSpeed="15.00" duration="1334.00" routeLength="19233.74" waitingTime="0.00" waitingCount="0" stopTime="0.00" timeLoss="67.54" rerouteNo="5" devices="tripinfo_veh53 routing_veh53 emissions_veh53" vType="authority@veh53" speedFactor="1.10" vaporized="">
        <emissions CO_abs="20135.617486" CO2_abs="2849421.030062" HC_abs="155.955260" PMx_abs="40.556226" NOx_abs="1061.883842" fuel_abs="1224.842646" electricity_abs="0"/>
    </tripinfo>
    <tripinfo id="veh44" depart="410.00" departLane="-B_0" departPos="5.10" departSpeed="0.00" departDelay="0.00" arrival="1826.00" arrivalLane="D_0" arrivalPos="1742.80" arrivalSpeed="14.44" duration="1416.00" routeLength="19233.74" waitingTime="0.00" waitingCount="0" stopTime="0.00" timeLoss="86.23" rerouteNo="5" devices="tripinfo_veh44 routing_veh44 emissions_veh44" vType="authority@veh44" speedFactor="1.04" vaporized="">
        <emissions CO_abs="23904.961637" CO2_abs="3026605.342158" HC_abs="178.116808" PMx_abs="43.022433" NOx_abs="1137.262187" fuel_abs="1301.007966" electricity_abs="0"/>
    </tripinfo>
    <tripinfo id="veh45" depart="420.00" departLane="-B_0" departPos="5.10" departSpeed="0.00" departDelay="0.00" arrival="1828.00" arrivalLane="D_0" arrivalPos="1742.80" arrivalSpeed="14.31" duration="1408.00" routeLength="19233.74" waitingTime="0.00" waitingCount="0" stopTime="0.00" timeLoss="131.62" rerouteNo="5" devices="tripinfo_veh45 routing_veh45 emissions_veh45" vType="authority@veh45" speedFactor="1.09" vaporized="">
        <emissions CO_abs="31903.487331" CO2_abs="3396241.299302" HC_abs="223.841616" PMx_abs="53.381557" NOx_abs="1315.070414" fuel_abs="1459.894576" electricity_abs="0"/>
    </tripinfo>
    <tripinfo id="veh75" depart="627.00" departLane="-E_0" departPos="5.10" departSpeed="0.00" departDelay="0.00" arrival="1839.00" arrivalLane="G_0" arrivalPos="1742.80" arrivalSpeed="12.73" duration="1212.00" routeLength="15744.90" waitingTime="0.00" waitingCount="0" stopTime="0.00" timeLoss="60.79" rerouteNo="6" devices="tripinfo_veh75 routing_veh75 emissions_veh75" vType="authority@veh75" speedFactor="0.98" vaporized="">
        <emissions CO_abs="0" CO2_abs="0" HC_abs="0" PMx_abs="0" NOx_abs="0" fuel_abs="0" electricity_abs="0"/>
    </tripinfo>
    <tripinfo id="veh23" depart="198.00" departLane="-D_0" departPos="5.10" departSpeed="0.00" departDelay="0.00" arrival="1861.00" arrivalLane="B_0" arrivalPos="1742.80" arrivalSpeed="11.72" duration="1663.00" routeLength="19233.74" waitingTime="0.00" waitingCount="0" stopTime="0.00" timeLoss="102.86" rerouteNo="7" devices="tripinfo_veh23 routing_veh23 emissions_veh23" vType="authority@veh23" speedFactor="0.89" vaporized="">
        <emissions CO_abs="30935.402228" CO2_abs="3086082.557624" HC_abs="211.747948" PMx_abs="42.076092" NOx_abs="1167.704008" fuel_abs="1326.581183" electricity_abs="0"/>
    </tripinfo>
    <tripinfo id="veh60" depart="524.00" departLane="-E_0" departPos="5.10" departSpeed="0.00" departDelay="0.00" arrival="1874.00" arrivalLane="G_0" arrivalPos="1742.80" arrivalSpeed="13.94" duration="1350.00" routeLength="19233.74" waitingTime="0.00" waitingCount="0" stopTime="0.00" timeLoss="68.18" rerouteNo="4" devices="tripinfo_veh60 routing_veh60 emissions_veh60" vType="authority@veh60" speedFactor="1.08" vaporized="">
        <emissions CO_abs="0" CO2_abs="0" HC_abs="0" PMx_abs="0" NOx_abs="0" fuel_abs="0" electricity_abs="0"/>
    </tripinfo>
    <tripinfo id="veh46" depart="422.00" departLane="-H_0" departPos="5.10" departSpeed="0.00" departDelay="0.00" arrival="1893.00" arrivalLane="F_0" arrivalPos="1742.80" arrivalSpeed="13.35" duration="1471.00" routeLength="19233.74" waitingTime="0.00" waitingCount="0" stopTime="0.00" timeLoss="78.78" rerouteNo="8" devices="tripinfo_veh46 routing_veh46 emissions_veh46" vType="authority@veh46" speedFactor="1.00" vaporized="">
        <emissions CO_abs="0" CO2_abs="0" HC_abs="0" PMx_abs="0" NOx_abs="0" fuel_abs="0" electricity_abs="0"/>
    </tripinfo>
    <tripinfo id="veh74" depart="623.00" departLane="-F_0" departPos="5.10" departSpeed="0.00" departDelay="0.00" arrival="1900.00" arrivalLane="H_0" arrivalPos="1742.80" arrivalSpeed="13.25" duration="1277.00" routeLength="15744.90" waitingTime="0.00" waitingCount="0" stopTime="0.00" timeLoss="90.00" rerouteNo="6" devices="tripinfo_veh74 routing_veh74 emissions_veh74" vType="authority@veh74" speedFactor="0.96" vaporized="">
        <emissions CO_abs="0" CO2_abs="0" HC_abs="0" PMx_abs="0" NOx_abs="0" fuel_abs="0" electricity_abs="0"/>
    </tripinfo>
    <tripinfo id="veh25" depart="218.00" departLane="-D_0" departPos="5.10" departSpeed="0.00" departDelay="0.00" arrival="1914.00" arrivalLane="B_0" arrivalPos="1742.80" arrivalSpeed="11.67" duration="1696.00" routeLength="19233.74" waitingTime="0.00" waitingCount="0" stopTime="0.00" timeLoss="105.86" rerouteNo="8" devices="tripinfo_veh25 routing_veh25 emissions_veh25" vType="authority@veh25" speedFactor="0.87" vaporized="">
        <emissions CO_abs="32215.517557" CO2_abs="3117554.695455" HC_abs="218.172481" PMx_abs="42.150963" NOx_abs="1179.275798" fuel_abs="1340.110936" electricity_abs="0"/>
    </tripinfo>
    <tripinfo id="veh52" depart="482.00" departLane="-F_0" departPos="5.10" departSpeed="0.00" departDelay="0.00" arrival="1923.00" arrivalLane="H_0" arrivalPos="1742.80" arrivalSpeed="13.95" duration="1441.00" routeLength="19233.74" waitingTime="0.00" waitingCount="0" stopTime="0.00" timeLoss="76.52" rerouteNo="6" devices="tripinfo_veh52 routing_veh52 emissions_veh52" vType="authority@veh52" speedFactor="1.02" vaporized="">
        <emissions CO_abs="22355.850173" CO2_abs="2878160.826532" HC_abs="167.865737" PMx_abs="39.964058" NOx_abs="1076.856960" fuel_abs="1237.199074" electricity_abs="0"/>
    </tripinfo>
    <tripinfo id="veh65" depart="558.00" departLane="-B_0" departPos="5.10" departSpeed="0.00" departDelay="0.00" arrival="1927.00" arrivalLane="D_0" arrivalPos="1742.80" arrivalSpeed="12.00" duration="1369.00" routeLength="15744.90" waitingTime="0.00" waitingCount="0" stopTime="0.00" timeLoss="83.90" rerouteNo="11" devices="tripinfo_veh65 routing_veh65 emissions_veh65" vType="authority@veh65" speedFactor="0.88" vaporized="">
        <emissions CO_abs="25661.140704" CO2_abs="2574911.879858" HC_abs="175.891651" PMx_abs="34.586494" NOx_abs="971.138829" fuel_abs="1106.850375" electricity_abs="0"/>
    </tripinfo>
    <tripinfo id="veh39" depart="349.00" departLane="-G_0" departPos="5.10" departSpeed="0.00" departDelay="0.00" arrival="1984.00" arrivalLane="E_0" arrivalPos="1742.80" arrivalSpeed="12.43" duration="1635.00" routeLength="19233.74" waitingTime="0.00" waitingCount="0" stopTime="0.00" timeLoss="93.74" rerouteNo="8" devices="tripinfo_veh39 routing_veh39 emissions_veh39" vType="authority@veh39" speedFactor="0.90" vaporized="">
        <emissions CO_abs="0" CO2_abs="0" HC_abs="0" PMx_abs="0" NOx_abs="0" fuel_abs="0" electricity_abs="0"/>
    </tripinfo>
    <tripinfo id="veh41" depart="365.00" departLane="-G_0" departPos="5.10" departSpeed="0.00" departDelay="0.00" arrival="1986.00" arrivalLane="E_0" arrivalPos="1742.80" arrivalSpeed="12.63" duration="1621.00" routeLength="19233.74" waitingTime="0.00" waitingCount="0" stopTime="0.00" timeLoss="170.79" rerouteNo="8" devices="tripinfo_veh41 routing_veh41 emissions_veh41" vType="authority@veh41" speedFactor="0.96" vaporized="">
        <emissions CO_abs="37723.017481" CO2_abs="3491453.459630" HC_abs="252.871160" PMx_abs="52.889163" NOx_abs="1356.697509" fuel_abs="1500.827722" electricity_abs="0"/>
    </tripinfo>
    <tripinfo id="veh68" depart="565.00" departLane="-B_0" departPos="5.10" departSpeed="0.00" departDelay="0.00" arrival="2000.00" arrivalLane="D_0" arrivalPos="1742.80" arrivalSpeed="14.04" duration="1435.00" routeLength="19233.74" waitingTime="0.00" waitingCount="0" stopTime="0.00" timeLoss="99.59" rerouteNo="3" devices="tripinfo_veh68 routing_veh68 emissions_veh68" vType="authority@veh68" speedFactor="1.04" vaporized="">
        <emissions CO_abs="0" CO2_abs="0" HC_abs="0" PMx_abs="0" NOx_abs="0" fuel_abs="0" electricity_abs="0"/>
    </tripinfo>
    <tripinfo id="veh62" depart="544.00" departLane="-F_0" departPos="5.10" departSpeed="0.00" departDelay="0.00" arrival="2002.00" arrivalLane="H_0" arrivalPos="1742.80" arrivalSpeed="13.51" duration="1458.00" routeLength="19233.74" waitingTime="0.00" waitingCount="0" stopTime="0.00" timeLoss="91.38" rerouteNo="6" devices="tripinfo_veh62 routing_veh62 emissions_veh62" vType="authority@veh62" speedFactor="1.02" vaporized="">
        <emissions CO_abs="0" CO2_abs="0" HC_abs="0" PMx_abs="0" NOx_abs="0" fuel_abs="0" electricity_abs="0"/>
    </tripinfo>
    <tripinfo id="veh69" depart="570.00" departLane="-D_0" departPos="5.10" departSpeed="0.00" departDelay="0.00" arrival="2014.00" arrivalLane="B_0" arrivalPos="1742.80" arrivalSpeed="13.37" duration="1444.00" routeLength="19233.74" waitingTime="0.00" waitingCount="0" stopTime="0.00" timeLoss="86.65" rerouteNo="8" devices="tripinfo_veh69 routing_veh69 emissions_veh69" vType="authority@veh69" speedFactor="1.02" vaporized="">
        <emissions CO_abs="0" CO2_abs="0" HC_abs="0" PMx_abs="0" NOx_abs="0" fuel_abs="0" electricity_abs="0"/>
    </tripinfo>
    <tripinfo id="veh24" depart="208.00" departLane="-C_0" departPos="5.10" departSpeed="0.00" departDelay="0.00" arrival="2018.00" arrivalLane="A_0" arrivalPos="1742.80" arrivalSpeed="10.30" duration="1810.00" routeLength="19233.74" waitingTime="8.00" waitingCount="1" stopTime="0.00" timeLoss="128.70" rerouteNo="5" devices="tripinfo_veh24 routing_veh24 emissions_veh24" vType="authority@veh24" speedFactor="0.83" vaporized="">