<?xml version="1.0" encoding="UTF-8"?>

<!-- generated on 02/10/21 17:53:32 by Eclipse SUMO GUI Version 1.7.0
<configuration xmlns:xsi="http://www.w3.org/2001/XMLSchema-instance" xsi:noNamespaceSchemaLocation="http://sumo.dlr.de/xsd/sumoConfiguration.xsd">

    <input>
        <net-file value="caseVE.net.xml"/>
        <route-files value="caseVE.rou.xml"/>
        <additional-files value="caseVE.add.xml"/>
    </input>

    <output>
        <emission-output value="emissionOutput.xml"/>
        <tripinfo-output value="tripinfo.xml"/>
    </output>

    <processing>
        <ignore-route-errors value="true"/>
    </processing>

    <traci_server>
        <remote-port value="56977"/>
    </traci_server>

</configuration>
-->

<tripinfos xmlns:xsi="http://www.w3.org/2001/XMLSchema-instance" xsi:noNamespaceSchemaLocation="http://sumo.dlr.de/xsd/tripinfo_file.xsd">
    <tripinfo id="veh3" depart="24.00" departLane="-H_0" departPos="5.10" departSpeed="0.00" departDelay="0.00" arrival="1121.00" arrivalLane="F_0" arrivalPos="1742.80" arrivalSpeed="14.07" duration="1097.00" routeLength="15744.90" waitingTime="0.00" waitingCount="0" stopTime="0.00" timeLoss="49.25" rerouteNo="1" devices="tripinfo_veh3 routing_veh3 emissions_veh3" vType="authority@veh3" speedFactor="1.08" vaporized="">
        <emissions CO_abs="0" CO2_abs="0" HC_abs="0" PMx_abs="0" NOx_abs="0" fuel_abs="0" electricity_abs="0"/>
    </tripinfo>
    <tripinfo id="veh0" depart="3.00" departLane="-D_0" departPos="5.10" departSpeed="0.00" departDelay="0.00" arrival="1142.00" arrivalLane="B_0" arrivalPos="1742.80" arrivalSpeed="14.22" duration="1139.00" routeLength="15744.90" waitingTime="0.00" waitingCount="0" stopTime="0.00" timeLoss="68.82" rerouteNo="1" devices="tripinfo_veh0 routing_veh0 emissions_veh0" vType="authority@veh0" speedFactor="1.06" vaporized="">
        <emissions CO_abs="19198.942451" CO2_abs="2451610.610415" HC_abs="143.216019" PMx_abs="35.189150" NOx_abs="921.689049" fuel_abs="1053.841807" electricity_abs="0"/>
    </tripinfo>
    <tripinfo id="veh6" depart="38.00" departLane="-E_0" departPos="5.10" departSpeed="0.00" departDelay="0.00" arrival="1175.00" arrivalLane="G_0" arrivalPos="1742.80" arrivalSpeed="13.33" duration="1137.00" routeLength="15744.90" waitingTime="0.00" waitingCount="0" stopTime="0.00" timeLoss="52.47" rerouteNo="1" devices="tripinfo_veh6 routing_veh6 emissions_veh6" vType="authority@veh6" speedFactor="1.05" vaporized="">
        <emissions CO_abs="0" CO2_abs="0" HC_abs="0" PMx_abs="0" NOx_abs="0" fuel_abs="0" electricity_abs="0"/>
    </tripinfo>
    <tripinfo id="veh1" depart="7.00" departLane="-F_0" departPos="5.10" departSpeed="0.00" departDelay="0.00" arrival="1282.00" arrivalLane="H_0" arrivalPos="1742.80" arrivalSpeed="12.03" duration="1275.00" routeLength="15744.90" waitingTime="0.00" waitingCount="0" stopTime="0.00" timeLoss="66.12" rerouteNo="1" devices="tripinfo_veh1 routing_veh1 emissions_veh1" vType="authority@veh1" speedFactor="0.94" vaporized="">
        <emissions CO_abs="0" CO2_abs="0" HC_abs="0" PMx_abs="0" NOx_abs="0" fuel_abs="0" electricity_abs="0"/>
    </tripinfo>
    <tripinfo id="veh2" depart="10.00" departLane="-F_0" departPos="5.10" departSpeed="0.00" departDelay="3.00" arrival="1283.00" arrivalLane="H_0" arrivalPos="1742.80" arrivalSpeed="13.46" duration="1273.00" routeLength="15744.90" waitingTime="0.00" waitingCount="0" stopTime="0.00" timeLoss="150.95" rerouteNo="1" devices="tripinfo_veh2 routing_veh2 emissions_veh2" vType="authority@veh2" speedFactor="1.01" vaporized="">
        <emissions CO_abs="29677.134798" CO2_abs="2853379.452140" HC_abs="201.688352" PMx_abs="44.251557" NOx_abs="1112.665383" fuel_abs="1226.544504" electricity_abs="0"/>
    </tripinfo>
    <tripinfo id="veh4" depart="34.00" departLane="-F_0" departPos="5.10" departSpeed="0.00" departDelay="0.00" arrival="1285.00" arrivalLane="H_0" arrivalPos="1742.80" arrivalSpeed="14.25" duration="1251.00" routeLength="15744.90" waitingTime="0.00" waitingCount="0" stopTime="0.00" timeLoss="150.31" rerouteNo="1" devices="tripinfo_veh4 routing_veh4 emissions_veh4" vType="authority@veh4" speedFactor="1.03" vaporized="">
        <emissions CO_abs="0" CO2_abs="0" HC_abs="0" PMx_abs="0" NOx_abs="0" fuel_abs="0" electricity_abs="0"/>
    </tripinfo>
    <tripinfo id="veh19" depart="166.00" departLane="-F_0" departPos="5.10" departSpeed="0.00" departDelay="0.00" arrival="1287.00" arrivalLane="H_0" arrivalPos="1742.80" arrivalSpeed="15.01" duration="1121.00" routeLength="15744.90" waitingTime="0.00" waitingCount="0" stopTime="0.00" timeLoss="141.55" rerouteNo="1" devices="tripinfo_veh19 routing_veh19 emissions_veh19" vType="authority@veh19" speedFactor="1.16" vaporized="">
        <emissions CO_abs="0" CO2_abs="0" HC_abs="0" PMx_abs="0" NOx_abs="0" fuel_abs="0" electricity_abs="0"/>
    </tripinfo>
    <tripinfo id="veh10" depart="93.00" departLane="-A_0" departPos="5.10" departSpeed="0.00" departDelay="0.00" arrival="1297.00" arrivalLane="C_0" arrivalPos="1742.80" arrivalSpeed="14.21" duration="1204.00" routeLength="15744.90" waitingTime="0.00" waitingCount="0" stopTime="0.00" timeLoss="164.57" rerouteNo="1" devices="tripinfo_veh10 routing_veh10 emissions_veh10" vType="authority@veh10" speedFactor="1.09" vaporized="">
        <emissions CO_abs="0" CO2_abs="0" HC_abs="0" PMx_abs="0" NOx_abs="0" fuel_abs="0" electricity_abs="0"/>
    </tripinfo>
    <tripinfo id="veh37" depart="313.00" departLane="-F_0" departPos="5.10" departSpeed="0.00" departDelay="0.00" arrival="1319.00" arrivalLane="H_0" arrivalPos="1742.80" arrivalSpeed="15.51" duration="1006.00" routeLength="15744.90" waitingTime="0.00" waitingCount="0" stopTime="0.00" timeLoss="44.19" rerouteNo="1" devices="tripinfo_veh37 routing_veh37 emissions_veh37" vType="authority@veh37" speedFactor="1.18" vaporized="">
        <emissions CO_abs="0" CO2_abs="0" HC_abs="0" PMx_abs="0" NOx_abs="0" fuel_abs="0" electricity_abs="0"/>
    </tripinfo>
    <tripinfo id="veh14" depart="117.00" departLane="-C_0" departPos="5.10" departSpeed="0.00" departDelay="0.00" arrival="1330.00" arrivalLane="A_0" arrivalPos="1742.80" arrivalSpeed="13.76" duration="1213.00" routeLength="15744.90" waitingTime="0.00" waitingCount="0" stopTime="0.00" timeLoss="68.91" rerouteNo="1" devices="tripinfo_veh14 routing_veh14 emissions_veh14" vType="authority@veh14" speedFactor="0.99" vaporized="">
        <emissions CO_abs="0" CO2_abs="0" HC_abs="0" PMx_abs="0" NOx_abs="0" fuel_abs="0" electricity_abs="0"/>
    </tripinfo>
    <tripinfo id="veh8" depart="66.00" departLane="-E_0" departPos="5.10" departSpeed="0.00" departDelay="0.00" arrival="1341.00" arrivalLane="G_0" arrivalPos="1742.80" arrivalSpeed="12.16" duration="1275.00" routeLength="15744.90" waitingTime="0.00" waitingCount="0" stopTime="0.00" timeLoss="65.49" rerouteNo="1" devices="tripinfo_veh8 routing_veh8 emissions_veh8" vType="authority@veh8" speedFactor="0.94" vaporized="">
        <emissions CO_abs="0" CO2_abs="0" HC_abs="0" PMx_abs="0" NOx_abs="0" fuel_abs="0" electricity_abs="0"/>
    </tripinfo>
    <tripinfo id="veh11" depart="103.00" departLane="-E_0" departPos="5.10" departSpeed="0.00" departDelay="0.00" arrival="1342.00" arrivalLane="G_0" arrivalPos="1742.80" arrivalSpeed="13.26" duration="1239.00" routeLength="15744.90" waitingTime="0.00" waitingCount="0" stopTime="0.00" timeLoss="134.28" rerouteNo="1" devices="tripinfo_veh11 routing_veh11 emissions_veh11" vType="authority@veh11" speedFactor="1.03" vaporized="">
        <emissions CO_abs="0" CO2_abs="0" HC_abs="0" PMx_abs="0" NOx_abs="0" fuel_abs="0" electricity_abs="0"/>
    </tripinfo>
    <tripinfo id="veh30" depart="246.00" departLane="-E_0" departPos="5.10" departSpeed="0.00" departDelay="0.00" arrival="1344.00" arrivalLane="G_0" arrivalPos="1742.80" arrivalSpeed="15.97" duration="1098.00" routeLength="15744.90" waitingTime="0.00" waitingCount="0" stopTime="0.00" timeLoss="135.51" rerouteNo="1" devices="tripinfo_veh30 routing_veh30 emissions_veh30" vType="authority@veh30" speedFactor="1.18" vaporized="">
        <emissions CO_abs="0" CO2_abs="0" HC_abs="0" PMx_abs="0" NOx_abs="0" fuel_abs="0" electricity_abs="0"/>
    </tripinfo>
    <tripinfo id="veh7" depart="39.00" departLane="-B_0" departPos="5.10" departSpeed="0.00" departDelay="0.00" arrival="1402.00" arrivalLane="D_0" arrivalPos="1742.80" arrivalSpeed="11.47" duration="1363.00" routeLength="15744.90" waitingTime="0.00" waitingCount="0" stopTime="0.00" timeLoss="83.30" rerouteNo="1" devices="tripinfo_veh7 routing_veh7 emissions_veh7" vType="authority@veh7" speedFactor="0.89" vaporized="">
        <emissions CO_abs="25726.761867" CO2_abs="2570304.346970" HC_abs="176.150292" PMx_abs="34.878127" NOx_abs="971.639535" fuel_abs="1104.869343" electricity_abs="0"/>
    </tripinfo>
    <tripinfo id="veh12" depart="105.00" departLane="-B_0" departPos="5.10" departSpeed="0.00" departDelay="0.00" arrival="1404.00" arrivalLane="D_0" arrivalPos="1742.80" arrivalSpeed="14.46" duration="1299.00" routeLength="15744.90" waitingTime="0.00" waitingCount="0" stopTime="0.00" timeLoss="215.57" rerouteNo="1" devices="tripinfo_veh12 routing_veh12 emissions_veh12" vType="authority@veh12" speedFactor="1.05" vaporized="">
        <emissions CO_abs="31345.930485" CO2_abs="2903053.879565" HC_abs="209.917185" PMx_abs="44.835434" NOx_abs="1131.561916" fuel_abs="1247.898504" electricity_abs="0"/>
    </tripinfo>
    <tripinfo id="veh13" depart="108.00" departLane="-B_0" departPos="5.10" departSpeed="0.00" departDelay="1.00" arrival="1405.00" arrivalLane="D_0" arrivalPos="1742.80" arrivalSpeed="15.59" duration="1297.00" routeLength="15744.90" waitingTime="0.00" waitingCount="0" stopTime="0.00" timeLoss="287.40" rerouteNo="1" devices="tripinfo_veh13 routing_veh13 emissions_veh13" vType="authority@veh13" speedFactor="1.12" vaporized="">
        <emissions CO_abs="38835.100381" CO2_abs="3298976.735545" HC_abs="254.027863" PMx_abs="54.757401" NOx_abs="1314.162728" fuel_abs="1418.085380" electricity_abs="0"/>
    </tripinfo>
    <tripinfo id="veh15" depart="122.00" departLane="-H_0" departPos="5.10" departSpeed="0.00" departDelay="0.00" arrival="1413.00" arrivalLane="F_0" arrivalPos="1742.80" arrivalSpeed="11.85" duration="1291.00" routeLength="15744.90" waitingTime="0.00" waitingCount="0" stopTime="0.00" timeLoss="67.10" rerouteNo="1" devices="tripinfo_veh15 routing_veh15 emissions_veh15" vType="authority@veh15" speedFactor="0.93" vaporized="">
        <emissions CO_abs="0" CO2_abs="0" HC_abs="0" PMx_abs="0" NOx_abs="0" fuel_abs="0" electricity_abs="0"/>
    </tripinfo>
    <tripinfo id="veh18" depart="154.00" departLane="-A_0" departPos="5.10" departSpeed="0.00" departDelay="0.00" arrival="1446.00" arrivalLane="C_0" arrivalPos="1742.80" arrivalSpeed="12.20" duration="1292.00" routeLength="15744.90" waitingTime="0.00" waitingCount="0" stopTime="0.00" timeLoss="80.44" rerouteNo="1" devices="tripinfo_veh18 routing_veh18 emissions_veh18" vType="authority@veh18" speedFactor="0.94" vaporized="">
        <emissions CO_abs="0" CO2_abs="0" HC_abs="0" PMx_abs="0" NOx_abs="0" fuel_abs="0" electricity_abs="0"/>
    </tripinfo>
    <tripinfo id="veh32" depart="277.00" departLane="-G_0" departPos="5.10" departSpeed="0.00" departDelay="0.00" arrival="1463.00" arrivalLane="E_0" arrivalPos="1742.80" arrivalSpeed="13.83" duration="1186.00" routeLength="15744.90" waitingTime="0.00" waitingCount="0" stopTime="0.00" timeLoss="58.04" rerouteNo="1" devices="tripinfo_veh32 routing_veh32 emissions_veh32" vType="authority@veh32" speedFactor="1.01" vaporized="">
        <emissions CO_abs="0" CO2_abs="0" HC_abs="0" PMx_abs="0" NOx_abs="0" fuel_abs="0" electricity_abs="0"/>
    </tripinfo>
    <tripinfo id="veh34" depart="285.00" departLane="-G_0" departPos="5.10" departSpeed="0.00" departDelay="0.00" arrival="1484.00" arrivalLane="E_0" arrivalPos="1742.80" arrivalSpeed="13.28" duration="1199.00" routeLength="15744.90" waitingTime="0.00" waitingCount="0" stopTime="0.00" timeLoss="59.37" rerouteNo="1" devices="tripinfo_veh34 routing_veh34 emissions_veh34" vType="authority@veh34" speedFactor="0.99" vaporized="">
        <emissions CO_abs="0" CO2_abs="0" HC_abs="0" PMx_abs="0" NOx_abs="0" fuel_abs="0" electricity_abs="0"/>
    </tripinfo>
    <tripinfo id="veh27" depart="226.00" departLane="-A_0" departPos="5.10" departSpeed="0.00" departDelay="0.00" arrival="1499.00" arrivalLane="C_0" arrivalPos="1742.80" arrivalSpeed="12.51" duration="1273.00" routeLength="15744.90" waitingTime="0.00" waitingCount="0" stopTime="0.00" timeLoss="77.76" rerouteNo="1" devices="tripinfo_veh27 routing_veh27 emissions_veh27" vType="authority@veh27" speedFactor="0.95" vaporized="">
        <emissions CO_abs="0" CO2_abs="0" HC_abs="0" PMx_abs="0" NOx_abs="0" fuel_abs="0" electricity_abs="0"/>
    </tripinfo>
    <tripinfo id="veh29" depart="244.00" departLane="-H_0" departPos="5.10" departSpeed="0.00" departDelay="0.00" arrival="1526.00" arrivalLane="F_0" arrivalPos="1742.80" arrivalSpeed="12.70" duration="1282.00" routeLength="15744.90" waitingTime="0.00" waitingCount="0" stopTime="0.00" timeLoss="64.85" rerouteNo="1" devices="tripinfo_veh29 routing_veh29 emissions_veh29" vType="authority@veh29" speedFactor="0.93" vaporized="">
        <emissions CO_abs="0" CO2_abs="0" HC_abs="0" PMx_abs="0" NOx_abs="0" fuel_abs="0" electricity_abs="0"/>
    </tripinfo>
    <tripinfo id="veh35" depart="286.00" departLane="-H_0" departPos="5.10" departSpeed="0.00" departDelay="0.00" arrival="1528.00" arrivalLane="F_0" arrivalPos="1742.80" arrivalSpeed="13.89" duration="1242.00" routeLength="15744.90" waitingTime="0.00" waitingCount="0" stopTime="0.00" timeLoss="129.93" rerouteNo="1" devices="tripinfo_veh35 routing_veh35 emissions_veh35" vType="authority@veh35" speedFactor="1.02" vaporized="">
        <emissions CO_abs="0" CO2_abs="0" HC_abs="0" PMx_abs="0" NOx_abs="0" fuel_abs="0" electricity_abs="0"/>
    </tripinfo>
    <tripinfo id="veh33" depart="282.00" departLane="-E_0" departPos="5.10" departSpeed="0.00" departDelay="0.00" arrival="1529.00" arrivalLane="G_0" arrivalPos="1742.80" arrivalSpeed="15.66" duration="1247.00" routeLength="19233.74" waitingTime="0.00" waitingCount="0" stopTime="0.00" timeLoss="62.15" rerouteNo="2" devices="tripinfo_veh33 routing_veh33 emissions_veh33" vType="authority@veh33" speedFactor="1.17" vaporized="">
        <emissions CO_abs="19105.655461" CO2_abs="2846888.860642" HC_abs="150.166957" PMx_abs="41.635479" NOx_abs="1057.965334" fuel_abs="1223.752394" electricity_abs="0"/>
    </tripinfo>
    <tripinfo id="veh46" depart="422.00" departLane="-H_0" departPos="5.10" departSpeed="0.00" departDelay="0.00" arrival="1618.00" arrivalLane="F_0" arrivalPos="1742.80" arrivalSpeed="13.33" duration="1196.00" routeLength="15744.90" waitingTime="0.00" waitingCount="0" stopTime="0.00" timeLoss="58.84" rerouteNo="1" devices="tripinfo_veh46 routing_veh46 emissions_veh46" vType="authority@veh46" speedFactor="1.00" vaporized="">
        <emissions CO_abs="0" CO2_abs="0" HC_abs="0" PMx_abs="0" NOx_abs="0" fuel_abs="0" electricity_abs="0"/>
    </tripinfo>
    <tripinfo id="veh21" depart="175.00" departLane="-D_0" departPos="5.10" departSpeed="0.00" departDelay="0.00" arrival="1637.00" arrivalLane="B_0" arrivalPos="1742.80" arrivalSpeed="13.34" duration="1462.00" routeLength="19233.74" waitingTime="0.00" waitingCount="0" stopTime="0.00" timeLoss="87.74" rerouteNo="3" devices="tripinfo_veh21 routing_veh21 emissions_veh21" vType="authority@veh21" speedFactor="1.01" vaporized="">
        <emissions CO_abs="24962.506691" CO2_abs="3083016.545803" HC_abs="184.634587" PMx_abs="43.081925" NOx_abs="1157.528560" fuel_abs="1325.258100" electricity_abs="0"/>
    </tripinfo>
    <tripinfo id="veh38" depart="345.00" departLane="-E_0" departPos="5.10" departSpeed="0.00" departDelay="0.00" arrival="1670.00" arrivalLane="G_0" arrivalPos="1742.80" arrivalSpeed="15.27" duration="1325.00" routeLength="19233.74" waitingTime="0.00" waitingCount="0" stopTime="0.00" timeLoss="65.69" rerouteNo="2" devices="tripinfo_veh38 routing_veh38 emissions_veh38" vType="authority@veh38" speedFactor="1.10" vaporized="">
        <emissions CO_abs="20097.521877" CO2_abs="2871579.083920" HC_abs="156.252035" PMx_abs="41.002256" NOx_abs="1070.026379" fuel_abs="1234.367153" electricity_abs="0"/>
    </tripinfo>
    <tripinfo id="veh24" depart="208.00" departLane="-C_0" departPos="5.10" departSpeed="0.00" departDelay="0.00" arrival="1672.00" arrivalLane="A_0" arrivalPos="1742.80" arrivalSpeed="10.32" duration="1464.00" routeLength="15744.90" waitingTime="0.00" waitingCount="0" stopTime="0.00" timeLoss="90.72" rerouteNo="1" devices="tripinfo_veh24 routing_veh24 emissions_veh24" vType="authority@veh24" speedFactor="0.83" vaporized="">
        <emissions CO_abs="0" CO2_abs="0" HC_abs="0" PMx_abs="0" NOx_abs="0" fuel_abs="0" electricity_abs="0"/>
    </tripinfo>
    <tripinfo id="veh28" depart="227.00" departLane="-C_0" departPos="5.10" departSpeed="0.00" departDelay="0.00" arrival="1674.00" arrivalLane="A_0" arrivalPos="1742.80" arrivalSpeed="15.14" duration="1447.00" routeLength="15744.90" waitingTime="0.00" waitingCount="0" stopTime="0.00" timeLoss="444.69" rerouteNo="1" devices="tripinfo_veh28 routing_veh28 emissions_veh28" vType="authority@veh28" speedFactor="1.13" vaporized="">
        <emissions CO_abs="0" CO2_abs="0" HC_abs="0" PMx_abs="0" NOx_abs="0" fuel_abs="0" electricity_abs="0"/>
    </tripinfo>
    <tripinfo id="veh31" depart="265.00" departLane="-C_0" departPos="5.10" departSpeed="0.00" departDelay="0.00" arrival="1675.00" arrivalLane="A_0" arrivalPos="1742.80" arrivalSpeed="14.40" duration="1410.00" routeLength="15744.90" waitingTime="0.00" waitingCount="0" stopTime="0.00" timeLoss="428.03" rerouteNo="1" devices="tripinfo_veh31 routing_veh31 emissions_veh31" vType="authority@veh31" speedFactor="1.15" vaporized="">
        <emissions CO_abs="0" CO2_abs="0" HC_abs="0" PMx_abs="0" NOx_abs="0" fuel_abs="0" electricity_abs="0"/>
    </tripinfo>
    <tripinfo id="veh39" depart="349.00" departLane="-G_0" departPos="5.10" departSpeed="0.00" departDelay="0.00" arrival="1680.00" arrivalLane="E_0" arrivalPos="1742.80" arrivalSpeed="11.40" duration="1331.00" routeLength="15744.90" waitingTime="0.00" waitingCount="0" stopTime="0.00" timeLoss="71.45" rerouteNo="1" devices="tripinfo_veh39 routing_veh39 emissions_veh39" vType="authority@veh39" speedFactor="0.90" vaporized="">
        <emissions CO_abs="0" CO2_abs="0" HC_abs="0" PMx_abs="0" NOx_abs="0" fuel_abs="0" electricity_abs="0"/>
    </tripinfo>
    <tripinfo id="veh17" depart="127.00" departLane="-B_0" departPos="5.10" departSpeed="0.00" departDelay="0.00" arrival="1699.00" arrivalLane="D_0" arrivalPos="1742.80" arrivalSpeed="12.18" duration="1572.00" routeLength="19233.74" waitingTime="0.00" waitingCount="0" stopTime="0.00" timeLoss="97.79" rerouteNo="2" devices="tripinfo_veh17 routing_veh17 emissions_veh17" vType="authority@veh17" speedFactor="0.94" vaporized="">
        <emissions CO_abs="27932.191974" CO2_abs="3022251.923069" HC_abs="196.885536" PMx_abs="41.930352" NOx_abs="1142.235465" fuel_abs="1299.140484" electricity_abs="0"/>
    </tripinfo>
    <tripinfo id="veh22" depart="185.00" departLane="-C_0" departPos="5.10" departSpeed="0.00" departDelay="0.00" arrival="1700.00" arrivalLane="A_0" arrivalPos="1742.80" arrivalSpeed="12.26" duration="1515.00" routeLength="19233.74" waitingTime="0.00" waitingCount="0" stopTime="0.00" timeLoss="91.20" rerouteNo="3" devices="tripinfo_veh22 routing_veh22 emissions_veh22" vType="authority@veh22" speedFactor="0.98" vaporized="">
        <emissions CO_abs="26375.543766" CO2_abs="3089175.648748" HC_abs="191.344585" PMx_abs="42.738595" NOx_abs="1161.750184" fuel_abs="1327.907034" electricity_abs="0"/>
    </tripinfo>
    <tripinfo id="veh47" depart="423.00" departLane="-A_0" departPos="5.10" departSpeed="0.00" departDelay="0.00" arrival="1762.00" arrivalLane="C_0" arrivalPos="1742.80" arrivalSpeed="11.78" duration="1339.00" routeLength="15744.90" waitingTime="0.00" waitingCount="0" stopTime="0.00" timeLoss="79.37" rerouteNo="3" devices="tripinfo_veh47 routing_veh47 emissions_veh47" vType="authority@veh47" speedFactor="0.90" vaporized="">
        <emissions CO_abs="0" CO2_abs="0" HC_abs="0" PMx_abs="0" NOx_abs="0" fuel_abs="0" electricity_abs="0"/>
    </tripinfo>
    <tripinfo id="veh42" depart="378.00" departLane="-A_0" departPos="5.10" departSpeed="0.00" departDelay="0.00" arrival="1763.00" arrivalLane="C_0" arrivalPos="1742.80" arrivalSpeed="13.57" duration="1385.00" routeLength="19233.74" waitingTime="0.00" waitingCount="0" stopTime="0.00" timeLoss="114.02" rerouteNo="3" devices="tripinfo_veh42 routing_veh42 emissions_veh42" vType="authority@veh42" speedFactor="1.09" vaporized="">
        <emissions CO_abs="25609.018959" CO2_abs="3071199.471059" HC_abs="186.427472" PMx_abs="45.685898" NOx_abs="1165.953319" fuel_abs="1320.175092" electricity_abs="0"/>
    </tripinfo>
    <tripinfo id="veh16" depart="123.00" departLane="-G_0" departPos="5.10" departSpeed="0.00" departDelay="0.00" arrival="1803.00" arrivalLane="E_0" arrivalPos="1742.80" arrivalSpeed="11.13" duration="1680.00" routeLength="19233.74" waitingTime="0.00" waitingCount="0" stopTime="0.00" timeLoss="99.76" rerouteNo="2" devices="tripinfo_veh16 routing_veh16 emissions_veh16" vType="authority@veh16" speedFactor="0.88" vaporized="">
        <emissions CO_abs="30037.793010" CO2_abs="3030936.334679" HC_abs="206.149994" PMx_abs="40.017011" NOx_abs="1138.549502" fuel_abs="1302.877754" electricity_abs="0"/>
    </tripinfo>
    <tripinfo id="veh20" depart="170.00" departLane="-G_0" departPos="5.10" departSpeed="0.00" departDelay="0.00" arrival="1805.00" arrivalLane="E_0" arrivalPos="1742.80" arrivalSpeed="13.25" duration="1635.00" routeLength="19233.74" waitingTime="0.00" waitingCount="0" stopTime="0.00" timeLoss="271.80" rerouteNo="4" devices="tripinfo_veh20 routing_veh20 emissions_veh20" vType="authority@veh20" speedFactor="1.02" vaporized="">
        <emissions CO_abs="38410.499736" CO2_abs="3512098.025693" HC_abs="256.221887" PMx_abs="53.005850" NOx_abs="1364.064614" fuel_abs="1509.702541" electricity_abs="0"/>
    </tripinfo>
    <tripinfo id="veh5" depart="37.00" departLane="-F_0" departPos="5.10" departSpeed="0.00" departDelay="2.00" arrival="1815.00" arrivalLane="H_0" arrivalPos="1742.80" arrivalSpeed="10.32" duration="1778.00" routeLength="19233.74" waitingTime="0.00" waitingCount="0" stopTime="0.00" timeLoss="107.55" rerouteNo="3" devices="tripinfo_veh5 routing_veh5 emissions_veh5" vType="authority@veh5" speedFactor="0.83" vaporized="">
        <emissions CO_abs="33750.129846" CO2_abs="3082830.139536" HC_abs="223.969243" PMx_abs="40.247865" NOx_abs="1160.875895" fuel_abs="1325.187645" electricity_abs="0"/>
    </tripinfo>
    <tripinfo id="veh9" depart="85.00" departLane="-A_0" departPos="5.10" departSpeed="0.00" departDelay="0.00" arrival="1817.00" arrivalLane="C_0" arrivalPos="1742.80" arrivalSpeed="11.48" duration="1732.00" routeLength="19233.74" waitingTime="0.00" waitingCount="0" stopTime="0.00" timeLoss="112.97" rerouteNo="2" devices="tripinfo_veh9 routing_veh9 emissions_veh9" vType="authority@veh9" speedFactor="0.86" vaporized="">
        <emissions CO_abs="34458.679494" CO2_abs="3188397.381758" HC_abs="229.938438" PMx_abs="43.156303" NOx_abs="1208.729775" fuel_abs="1370.564323" electricity_abs="0"/>
    </tripinfo>
    <tripinfo id="veh53" depart="489.00" departLane="-E_0" departPos="5.10" departSpeed="0.00" departDelay="0.00" arrival="1822.00" arrivalLane="G_0" arrivalPos="1742.80" arrivalSpeed="14.62" duration="1333.00" routeLength="19233.74" waitingTime="0.00" waitingCount="0" stopTime="0.00" timeLoss="66.36" rerouteNo="2" devices="tripinfo_veh53 routing_veh53 emissions_veh53" vType="authority@veh53" speedFactor="1.10" vaporized="">
        <emissions CO_abs="20100.634232" CO2_abs="2838248.768467" HC_abs="155.483634" PMx_abs="40.492403" NOx_abs="1058.288568" fuel_abs="1220.040057" electricity_abs="0"/>
    </tripinfo>
    <tripinfo id="veh44" depart="410.00" departLane="-B_0" departPos="5.10" departSpeed="0.00" departDelay="0.00" arrival="1825.00" arrivalLane="D_0" arrivalPos="1742.80" arrivalSpeed="13.81" duration="1415.00" routeLength="19233.74" waitingTime="0.00" waitingCount="0" stopTime="0.00" timeLoss="84.99" rerouteNo="3" devices="tripinfo_veh44 routing_veh44 emissions_veh44" vType="authority@veh44" speedFactor="1.04" vaporized="">
        <emissions CO_abs="23958.488247" CO2_abs="3039578.643035" HC_abs="178.644944" PMx_abs="43.237259" NOx_abs="1142.214566" fuel_abs="1306.584553" electricity_abs="0"/>
    </tripinfo>
    <tripinfo id="veh45" depart="420.00" departLane="-B_0" departPos="5.10" departSpeed="0.00" departDelay="0.00" arrival="1827.00" arrivalLane="D_0" arrivalPos="1742.80" arrivalSpeed="14.28" duration="1407.00" routeLength="19233.74" waitingTime="0.00" waitingCount="0" stopTime="0.00" timeLoss="131.43" rerouteNo="3" devices="tripinfo_veh45 routing_veh45 emissions_veh45" vType="authority@veh45" speedFactor="1.09" vaporized="">
        <emissions CO_abs="31549.987412" CO2_abs="3361677.211859" HC_abs="221.471126" PMx_abs="52.779045" NOx_abs="1301.454867" fuel_abs="1445.037057" electricity_abs="0"/>
    </tripinfo>
    <tripinfo id="veh56" depart="500.00" departLane="-A_0" departPos="5.10" departSpeed="0.00" departDelay="0.00" arrival="1844.00" arrivalLane="C_0" arrivalPos="1742.80" arrivalSpeed="12.00" duration="1344.00" routeLength="15744.90" waitingTime="0.00" waitingCount="0" stopTime="0.00" timeLoss="82.61" rerouteNo="3" devices="tripinfo_veh56 routing_veh56 emissions_veh56" vType="authority@veh56" speedFactor="0.90" vaporized="">
        <emissions CO_abs="0" CO2_abs="0" HC_abs="0" PMx_abs="0" NOx_abs="0" fuel_abs="0" electricity_abs="0"/>
    </tripinfo>
    <tripinfo id="veh26" depart="222.00" departLane="-C_0" departPos="5.10" departSpeed="0.00" departDelay="0.00" arrival="1854.00" arrivalLane="A_0" arrivalPos="1742.80" arrivalSpeed="11.86" duration="1632.00" routeLength="19233.74" waitingTime="0.00" waitingCount="0" stopTime="0.00" timeLoss="119.26" rerouteNo="2" devices="tripinfo_veh26 routing_veh26 emissions_veh26" vType="authority@veh26" speedFactor="0.92" vaporized="">
        <emissions CO_abs="30870.953305" CO2_abs="3123016.524914" HC_abs="212.456045" PMx_abs="43.171769" NOx_abs="1183.800141" fuel_abs="1342.456492" electricity_abs="0"/>
    </tripinfo>
    <tripinfo id="veh36" depart="293.00" departLane="-C_0" departPos="5.10" departSpeed="0.00" departDelay="0.00" arrival="1856.00" arrivalLane="A_0" arrivalPos="1742.80" arrivalSpeed="12.49" duration="1563.00" routeLength="19233.74" waitingTime="0.00" waitingCount="0" stopTime="0.00" timeLoss="136.99" rerouteNo="2" devices="tripinfo_veh36 routing_veh36 emissions_veh36" vType="authority@veh36" speedFactor="0.97" vaporized="">
        <emissions CO_abs="33016.612185" CO2_abs="3329892.892480" HC_abs="227.530770" PMx_abs="49.136283" NOx_abs="1279.570497" fuel_abs="1431.379750" electricity_abs="0"/>
    </tripinfo>
    <tripinfo id="veh40" depart="351.00" departLane="-C_0" departPos="5.10" departSpeed="0.00" departDelay="0.00" arrival="1858.00" arrivalLane="A_0" arrivalPos="1742.80" arrivalSpeed="14.02" duration="1507.00" routeLength="19233.74" waitingTime="0.00" waitingCount="0" stopTime="0.00" timeLoss="160.07" rerouteNo="4" devices="tripinfo_veh40 routing_veh40 emissions_veh40" vType="authority@veh40" speedFactor="1.03" vaporized="">
        <emissions CO_abs="34507.459819" CO2_abs="3437112.850831" HC_abs="236.975564" PMx_abs="53.075811" NOx_abs="1333.185713" fuel_abs="1477.466062" electricity_abs="0"/>
    </tripinfo>
    <tripinfo id="veh43" depart="390.00" departLane="-C_0" departPos="5.10" departSpeed="0.00" departDelay="0.00" arrival="1859.00" arrivalLane="A_0" arrivalPos="1742.80" arrivalSpeed="14.28" duration="1469.00" routeLength="19233.74" waitingTime="0.00" waitingCount="0" stopTime="0.00" timeLoss="131.71" rerouteNo="2" devices="tripinfo_veh43 routing_veh43 emissions_veh43" vType="authority@veh43" speedFactor="1.04" vaporized="">
        <emissions CO_abs="31768.467932" CO2_abs="3298879.078683" HC_abs="220.813099" PMx_abs="50.794880" NOx_abs="1275.142358" fuel_abs="1418.044672" electricity_abs="0"/>
    </tripinfo>
    <tripinfo id="veh23" depart="198.00" departLane="-D_0" departPos="5.10" departSpeed="0.00" departDelay="0.00" arrival="1863.00" arrivalLane="B_0" arrivalPos="1742.80" arrivalSpeed="11.39" duration="1665.00" routeLength="19233.74" waitingTime="0.00" waitingCount="0" stopTime="0.00" timeLoss="104.76" rerouteNo="3" devices="tripinfo_veh23 routing_veh23 emissions_veh23" vType="authority@veh23" speedFactor="0.89" vaporized="">
        <emissions CO_abs="31389.876748" CO2_abs="3124727.670805" HC_abs="214.695430" PMx_abs="42.564927" NOx_abs="1182.094050" fuel_abs="1343.193257" electricity_abs="0"/>
    </tripinfo>
    <tripinfo id="veh60" depart="524.00" departLane="-E_0" departPos="5.10" departSpeed="0.00" departDelay="0.00" arrival="1877.00" arrivalLane="G_0" arrivalPos="1742.80" arrivalSpeed="14.14" duration="1353.00" routeLength="19233.74" waitingTime="0.00" waitingCount="0" stopTime="0.00" timeLoss="70.31" rerouteNo="1" devices="tripinfo_veh60 routing_veh60 emissions_veh60" vType="authority@veh60" speedFactor="1.08" vaporized="">
        <emissions CO_abs="0" CO2_abs="0" HC_abs="0" PMx_abs="0" NOx_abs="0" fuel_abs="0" electricity_abs="0"/>
    </tripinfo>
    <tripinfo id="veh49" depart="472.00" departLane="-H_0" departPos="5.10" departSpeed="0.00" departDelay="0.00" arrival="1884.00" arrivalLane="F_0" arrivalPos="1742.80" arrivalSpeed="11.28" duration="1412.00" routeLength="15744.90" waitingTime="0.00" waitingCount="0" stopTime="0.00" timeLoss="78.69" rerouteNo="1" devices="tripinfo_veh49 routing_veh49 emissions_veh49" vType="authority@veh49" speedFactor="0.85" vaporized="">