<?xml version="1.0" encoding="UTF-8"?>

<!-- generated on 12/15/20 19:49:24 by Eclipse SUMO GUI Version 1.7.0
<configuration xmlns:xsi="http://www.w3.org/2001/XMLSchema-instance" xsi:noNamespaceSchemaLocation="http://sumo.dlr.de/xsd/sumoConfiguration.xsd">

    <input>
        <net-file value="emergency.net.xml"/>
        <route-files value="emergency.rou.xml"/>
        <additional-files value="emergency.add.xml"/>
    </input>

    <output>
        <tripinfo-output value="tripinfo.xml"/>
    </output>

    <traci_server>
        <remote-port value="57025"/>
    </traci_server>

</configuration>
-->

<tripinfos xmlns:xsi="http://www.w3.org/2001/XMLSchema-instance" xsi:noNamespaceSchemaLocation="http://sumo.dlr.de/xsd/tripinfo_file.xsd">
    <tripinfo id="NSn0" depart="1.00" departLane="e1a_0" departPos="5.10" departSpeed="0.00" departDelay="0.00" arrival="19.00" arrivalLane="e3_0" arrivalPos="68.21" arrivalSpeed="13.56" duration="18.00" routeLength="192.06" waitingTime="0.00" waitingCount="0" stopTime="0.00" timeLoss="4.07" rerouteNo="0" devices="tripinfo_NSn0" vType="normal_car" speedFactor="1.06" vaporized=""/>
    <tripinfo id="NEn2" depart="4.00" departLane="e1a_0" departPos="5.10" departSpeed="0.00" departDelay="2.00" arrival="26.00" arrivalLane="e2_1" arrivalPos="88.79" arrivalSpeed="13.72" duration="22.00" routeLength="207.27" waitingTime="0.00" waitingCount="0" stopTime="0.00" timeLoss="5.52" rerouteNo="0" devices="tripinfo_NEn2" vType="normal_car" speedFactor="1.01" vaporized=""/>
    <tripinfo id="NEn3" depart="7.00" departLane="e1a_0" departPos="5.10" departSpeed="0.00" departDelay="3.00" arrival="28.00" arrivalLane="e2_1" arrivalPos="88.79" arrivalSpeed="14.22" duration="21.00" routeLength="207.27" waitingTime="0.00" waitingCount="0" stopTime="0.00" timeLoss="6.67" rerouteNo="0" devices="tripinfo_NEn3" vType="normal_car" speedFactor="1.08" vaporized=""/>
    <tripinfo id="NEn5" depart="11.00" departLane="e1a_0" departPos="5.10" departSpeed="0.00" departDelay="0.00" arrival="35.00" arrivalLane="e2_1" arrivalPos="88.79" arrivalSpeed="10.77" duration="24.00" routeLength="207.27" waitingTime="0.00" waitingCount="0" stopTime="0.00" timeLoss="4.58" rerouteNo="0" devices="tripinfo_NEn5" vType="normal_car" speedFactor="0.83" vaporized=""/>
    <tripinfo id="NEn9" depart="22.00" departLane="e1a_0" departPos="5.10" departSpeed="0.00" departDelay="0.00" arrival="44.00" arrivalLane="e2_1" arrivalPos="88.79" arrivalSpeed="12.17" duration="22.00" routeLength="207.27" waitingTime="0.00" waitingCount="0" stopTime="0.00" timeLoss="5.49" rerouteNo="0" devices="tripinfo_NEn9" vType="normal_car" speedFactor="0.94" vaporized=""/>
    <tripinfo id="NEn11" depart="25.00" departLane="e1a_0" departPos="5.10" departSpeed="0.00" departDelay="0.00" arrival="46.00" arrivalLane="e2_1" arrivalPos="88.79" arrivalSpeed="14.13" duration="21.00" routeLength="207.27" waitingTime="0.00" waitingCount="0" stopTime="0.00" timeLoss="6.22" rerouteNo="0" devices="tripinfo_NEn11" vType="normal_car" speedFactor="1.09" vaporized=""/>
    <tripinfo id="NSn13" depart="32.00" departLane="e1a_0" departPos="5.10" departSpeed="0.00" departDelay="0.00" arrival="49.00" arrivalLane="e3_0" arrivalPos="68.21" arrivalSpeed="13.99" duration="17.00" routeLength="192.06" waitingTime="0.00" waitingCount="0" stopTime="0.00" timeLoss="3.25" rerouteNo="0" devices="tripinfo_NSn13" vType="normal_car" speedFactor="1.05" vaporized=""/>
    <tripinfo id="WSn1" depart="1.00" departLane="e4_0" departPos="5.10" departSpeed="0.00" departDelay="0.00" arrival="54.00" arrivalLane="e3_0" arrivalPos="68.21" arrivalSpeed="12.91" duration="53.00" routeLength="171.81" waitingTime="31.00" waitingCount="1" stopTime="0.00" timeLoss="38.48" rerouteNo="0" devices="tripinfo_WSn1" vType="normal_car" speedFactor="0.94" vaporized=""/>
    <tripinfo id="WEn4" depart="8.00" departLane="e4_0" departPos="5.10" departSpeed="0.00" departDelay="0.00" arrival="57.00" arrivalLane="e2_0" arrivalPos="88.79" arrivalSpeed="13.15" duration="49.00" routeLength="195.28" waitingTime="25.00" waitingCount="1" stopTime="0.00" timeLoss="34.72" rerouteNo="0" devices="tripinfo_WEn4" vType="normal_car" speedFactor="1.03" vaporized=""/>
    <tripinfo id="NSn14" depart="35.00" departLane="e1a_0" departPos="5.10" departSpeed="0.00" departDelay="0.00" arrival="59.00" arrivalLane="e3_0" arrivalPos="68.21" arrivalSpeed="14.47" duration="24.00" routeLength="192.06" waitingTime="2.00" waitingCount="1" stopTime="0.00" timeLoss="11.32" rerouteNo="0" devices="tripinfo_NSn14" vType="normal_car" speedFactor="1.12" vaporized=""/>
    <tripinfo id="NSn15" depart="40.00" departLane="e1a_0" departPos="5.10" departSpeed="0.00" departDelay="0.00" arrival="61.00" arrivalLane="e3_0" arrivalPos="68.21" arrivalSpeed="13.37" duration="21.00" routeLength="192.06" waitingTime="0.00" waitingCount="0" stopTime="0.00" timeLoss="6.68" rerouteNo="0" devices="tripinfo_NSn15" vType="normal_car" speedFactor="0.99" vaporized=""/>
    <tripinfo id="WSe6" depart="15.00" departLane="e4_0" departPos="6.60" departSpeed="0.00" departDelay="0.00" arrival="65.00" arrivalLane="e3_0" arrivalPos="68.21" arrivalSpeed="12.98" duration="50.00" routeLength="170.31" waitingTime="22.00" waitingCount="2" stopTime="0.00" timeLoss="36.66" rerouteNo="0" devices="tripinfo_WSe6" vType="emergency_car" speedFactor="1.00" vaporized=""/>
    <tripinfo id="WSn7" depart="18.00" departLane="e4_0" departPos="5.10" departSpeed="0.00" departDelay="3.00" arrival="67.00" arrivalLane="e3_0" arrivalPos="68.21" arrivalSpeed="13.66" duration="49.00" routeLength="171.81" waitingTime="22.00" waitingCount="2" stopTime="0.00" timeLoss="36.18" rerouteNo="0" devices="tripinfo_WSn7" vType="normal_car" speedFactor="1.05" vaporized=""/>
    <tripinfo id="NEn18" depart="48.00" departLane="e1a_0" departPos="5.10" departSpeed="0.00" departDelay="0.00" arrival="71.00" arrivalLane="e2_0" arrivalPos="88.79" arrivalSpeed="11.79" duration="23.00" routeLength="212.43" waitingTime="0.00" waitingCount="0" stopTime="0.00" timeLoss="5.20" rerouteNo="0" devices="tripinfo_NEn18" vType="normal_car" speedFactor="0.94" vaporized=""/>
    <tripinfo id="WEn8" depart="21.00" departLane="e4_0" departPos="5.10" departSpeed="0.00" departDelay="3.00" arrival="73.00" arrivalLane="e2_0" arrivalPos="88.79" arrivalSpeed="11.15" duration="52.00" routeLength="195.28" waitingTime="20.00" waitingCount="2" stopTime="0.00" timeLoss="35.45" rerouteNo="0" devices="tripinfo_WEn8" vType="normal_car" speedFactor="0.89" vaporized=""/>
    <tripinfo id="WSn10" depart="24.00" departLane="e4_0" departPos="5.10" departSpeed="0.00" departDelay="2.00" arrival="74.00" arrivalLane="e3_0" arrivalPos="68.21" arrivalSpeed="11.86" duration="50.00" routeLength="171.81" waitingTime="16.00" waitingCount="2" stopTime="0.00" timeLoss="34.25" rerouteNo="0" devices="tripinfo_WSn10" vType="normal_car" speedFactor="0.86" vaporized=""/>
    <tripinfo id="WSn12" depart="29.00" departLane="e4_0" departPos="5.10" departSpeed="0.00" departDelay="0.00" arrival="76.00" arrivalLane="e3_0" arrivalPos="68.21" arrivalSpeed="14.14" duration="47.00" routeLength="171.81" waitingTime="12.00" waitingCount="1" stopTime="0.00" timeLoss="33.40" rerouteNo="0" devices="tripinfo_WSn12" vType="normal_car" speedFactor="1.03" vaporized=""/>
    <tripinfo id="NSe19" depart="58.00" departLane="e1a_0" departPos="6.60" departSpeed="0.00" departDelay="0.00" arrival="77.00" arrivalLane="e3_0" arrivalPos="68.21" arrivalSpeed="13.69" duration="19.00" routeLength="190.56" waitingTime="0.00" waitingCount="0" stopTime="0.00" timeLoss="5.27" rerouteNo="0" devices="tripinfo_NSe19" vType="emergency_car" speedFactor="1.00" vaporized=""/>
    <tripinfo id="WSn16" depart="43.00" departLane="e4_0" departPos="5.10" departSpeed="0.00" departDelay="0.00" arrival="82.00" arrivalLane="e3_0" arrivalPos="68.21" arrivalSpeed="11.85" duration="39.00" routeLength="171.81" waitingTime="2.00" waitingCount="1" stopTime="0.00" timeLoss="24.36" rerouteNo="0" devices="tripinfo_WSn16" vType="normal_car" speedFactor="0.93" vaporized=""/>
    <tripinfo id="WSn17" depart="46.00" departLane="e4_0" departPos="5.10" departSpeed="0.00" departDelay="0.00" arrival="85.00" arrivalLane="e3_0" arrivalPos="68.21" arrivalSpeed="11.77" duration="39.00" routeLength="171.81" waitingTime="0.00" waitingCount="0" stopTime="0.00" timeLoss="23.45" rerouteNo="0" devices="tripinfo_WSn17" vType="normal_car" speedFactor="0.88" vaporized=""/>
    <tripinfo id="NEe22" depart="64.00" departLane="e1a_0" departPos="6.60" departSpeed="0.00" departDelay="0.00" arrival="86.00" arrivalLane="e2_0" arrivalPos="88.79" arrivalSpeed="12.77" duration="22.00" routeLength="210.93" waitingTime="0.00" waitingCount="0" stopTime="0.00" timeLoss="6.14" rerouteNo="0" devices="tripinfo_NEe22" vType="emergency_car" speedFactor="1.00" vaporized=""/>
    <tripinfo id="WEn21" depart="62.00" departLane="e4_0" departPos="5.10" departSpeed="0.00" departDelay="0.00" arrival="88.00" arrivalLane="e2_0" arrivalPos="88.79" arrivalSpeed="15.02" duration="26.00" routeLength="195.28" waitingTime="0.00" waitingCount="0" stopTime="0.00" timeLoss="13.48" rerouteNo="0" devices="tripinfo_WEn21" vType="normal_car" speedFactor="1.16" vaporized=""/>
    <tripinfo id="NEn20" depart="61.00" departLane="e1a_0" departPos="5.10" departSpeed="0.00" departDelay="3.00" arrival="101.00" arrivalLane="e2_1" arrivalPos="88.79" arrivalSpeed="12.15" duration="40.00" routeLength="207.27" waitingTime="14.00" waitingCount="1" stopTime="0.00" timeLoss="22.81" rerouteNo="0" devices="tripinfo_NEn20" vType="normal_car" speedFactor="0.94" vaporized=""/>
    <tripinfo id="NEn23" depart="67.00" departLane="e1a_0" departPos="5.10" departSpeed="0.00" departDelay="1.00" arrival="102.00" arrivalLane="e2_1" arrivalPos="88.79" arrivalSpeed="13.42" duration="35.00" routeLength="207.27" waitingTime="11.00" waitingCount="1" stopTime="0.00" timeLoss="19.44" rerouteNo="0" devices="tripinfo_NEn23" vType="normal_car" speedFactor="1.02" vaporized=""/>
    <tripinfo id="NEn24" depart="70.00" departLane="e1a_0" departPos="5.10" departSpeed="0.00" departDelay="0.00" arrival="105.00" arrivalLane="e2_1" arrivalPos="88.79" arrivalSpeed="12.78" duration="35.00" routeLength="207.27" waitingTime="8.00" waitingCount="1" stopTime="0.00" timeLoss="19.27" rerouteNo="0" devices="tripinfo_NEn24" vType="normal_car" speedFactor="1.01" vaporized=""/>
    <tripinfo id="NSn25" depart="73.00" departLane="e1a_0" departPos="5.10" departSpeed="0.00" departDelay="2.00" arrival="106.00" arrivalLane="e3_1" arrivalPos="68.21" arrivalSpeed="13.53" duration="33.00" routeLength="192.06" waitingTime="7.00" waitingCount="1" stopTime="0.00" timeLoss="17.87" rerouteNo="0" devices="tripinfo_NSn25" vType="normal_car" speedFactor="0.98" vaporized=""/>
    <tripinfo id="NSn28" depart="84.00" departLane="e1a_0" departPos="5.10" departSpeed="0.00" departDelay="0.00" arrival="108.00" arrivalLane="e3_1" arrivalPos="68.21" arrivalSpeed="11.82" duration="24.00" routeLength="192.06" waitingTime="0.00" waitingCount="0" stopTime="0.00" timeLoss="7.55" rerouteNo="0" devices="tripinfo_NSn28" vType="normal_car" speedFactor="0.87" vaporized=""/>
    <tripinfo id="NSn30" depart="87.00" departLane="e1a_0" departPos="5.10" departSpeed="0.00" departDelay="1.00" arrival="110.00" arrivalLane="e3_1" arrivalPos="68.21" arrivalSpeed="12.65" duration="23.00" routeLength="192.06" waitingTime="0.00" waitingCount="0" stopTime="0.00" timeLoss="7.67" rerouteNo="0" devices="tripinfo_NSn30" vType="normal_car" speedFactor="0.95" vaporized=""/>
    <tripinfo id="NSn31" depart="92.00" departLane="e1a_0" departPos="5.10" departSpeed="0.00" departDelay="0.00" arrival="111.00" arrivalLane="e3_1" arrivalPos="68.21" arrivalSpeed="14.51" duration="19.00" routeLength="192.06" waitingTime="0.00" waitingCount="0" stopTime="0.00" timeLoss="6.63" rerouteNo="0" devices="tripinfo_NSn31" vType="normal_car" speedFactor="1.13" vaporized=""/>
    <tripinfo id="NEe34" depart="114.00" departLane="e1a_0" departPos="6.60" departSpeed="0.00" departDelay="0.00" arrival="136.00" arrivalLane="e2_1" arrivalPos="88.79" arrivalSpeed="12.85" duration="22.00" routeLength="205.77" waitingTime="0.00" waitingCount="0" stopTime="0.00" timeLoss="6.14" rerouteNo="0" devices="tripinfo_NEe34" vType="emergency_car" speedFactor="1.00" vaporized=""/>
    <tripinfo id="WSn26" depart="79.00" departLane="e4_0" departPos="5.10" departSpeed="0.00" departDelay="0.00" arrival="144.00" arrivalLane="e3_0" arrivalPos="68.21" arrivalSpeed="11.79" duration="65.00" routeLength="171.81" waitingTime="43.00" waitingCount="1" stopTime="0.00" timeLoss="49.79" rerouteNo="0" devices="tripinfo_WSn26" vType="normal_car" speedFactor="0.89" vaporized=""/>
    <tripinfo id="WSn27" depart="82.00" departLane="e4_0" departPos="5.10" departSpeed="0.00" departDelay="0.00" arrival="147.00" arrivalLane="e3_0" arrivalPos="68.21" arrivalSpeed="11.10" duration="65.00" routeLength="171.81" waitingTime="41.00" waitingCount="1" stopTime="0.00" timeLoss="48.50" rerouteNo="0" devices="tripinfo_WSn27" vType="normal_car" speedFactor="0.83" vaporized=""/>
    <tripinfo id="WSn29" depart="85.00" departLane="e4_0" departPos="5.10" departSpeed="0.00" departDelay="0.00" arrival="149.00" arrivalLane="e3_0" arrivalPos="68.21" arrivalSpeed="12.55" duration="64.00" routeLength="171.81" waitingTime="40.00" waitingCount="1" stopTime="0.00" timeLoss="49.03" rerouteNo="0" devices="tripinfo_WSn29" vType="normal_car" speedFactor="0.92" vaporized=""/>
    <tripinfo id="WEn32" depart="107.00" departLane="e4_0" departPos="5.10" departSpeed="0.00" departDelay="0.00" arrival="152.00" arrivalLane="e2_0" arrivalPos="88.79" arrivalSpeed="12.83" duration="45.00" routeLength="195.28" waitingTime="21.00" waitingCount="1" stopTime="0.00" timeLoss="29.10" rerouteNo="0" devices="tripinfo_WEn32" vType="normal_car" speedFactor="0.93" vaporized=""/>
    <tripinfo id="WSn33" depart="110.00" departLane="e4_0" departPos="5.10" departSpeed="0.00" departDelay="2.00" arrival="152.00" arrivalLane="e3_0" arrivalPos="68.21" arrivalSpeed="15.39" duration="42.00" routeLength="171.81" waitingTime="18.00" waitingCount="1" stopTime="0.00" timeLoss="30.43" rerouteNo="0" devices="tripinfo_WSn33" vType="normal_car" speedFactor="1.18" vaporized=""/>
    <tripinfo id="WSe36" depart="130.00" departLane="e4_0" departPos="6.60" departSpeed="0.00" departDelay="0.00" arrival="155.00" arrivalLane="e3_0" arrivalPos="68.21" arrivalSpeed="13.00" duration="25.00" routeLength="170.31" waitingTime="0.00" waitingCount="0" stopTime="0.00" timeLoss="11.75" rerouteNo="0" devices="tripinfo_WSe36" vType="emergency_car" speedFactor="1.00" vaporized=""/>
    <tripinfo id="WSn37" depart="133.00" departLane="e4_0" departPos="5.10" departSpeed="0.00" departDelay="3.00" arrival="158.00" arrivalLane="e3_0" arrivalPos="68.21" arrivalSpeed="13.66" duration="25.00" routeLength="171.81" waitingTime="0.00" waitingCount="0" stopTime="0.00" timeLoss="11.09" rerouteNo="0" devices="tripinfo_WSn37" vType="normal_car" speedFactor="1.01" vaporized=""/>
    <tripinfo id="WEn38" depart="136.00" departLane="e4_0" departPos="5.10" departSpeed="0.00" departDelay="5.00" arrival="160.00" arrivalLane="e2_0" arrivalPos="88.79" arrivalSpeed="16.04" duration="24.00" routeLength="195.28" waitingTime="0.00" waitingCount="0" stopTime="0.00" timeLoss="11.67" rerouteNo="0" devices="tripinfo_WEn38" vType="normal_car" speedFactor="1.17" vaporized=""/>
    <tripinfo id="NSe41" depart="142.00" departLane="e1a_0" departPos="6.60" departSpeed="0.00" departDelay="0.00" arrival="161.00" arrivalLane="e3_0" arrivalPos="68.21" arrivalSpeed="13.50" duration="19.00" routeLength="190.56" waitingTime="0.00" waitingCount="0" stopTime="0.00" timeLoss="5.21" rerouteNo="0" devices="tripinfo_NSe41" vType="emergency_car" speedFactor="1.00" vaporized=""/>
    <tripinfo id="WSn39" depart="139.00" departLane="e4_0" departPos="5.10" departSpeed="0.00" departDelay="7.00" arrival="166.00" arrivalLane="e3_0" arrivalPos="68.21" arrivalSpeed="13.38" duration="27.00" routeLength="171.81" waitingTime="1.00" waitingCount="1" stopTime="0.00" timeLoss="13.70" rerouteNo="0" devices="tripinfo_WSn39" vType="normal_car" speedFactor="0.99" vaporized=""/>
    <tripinfo id="NEe42" depart="145.00" departLane="e1a_0" departPos="6.60" departSpeed="0.00" departDelay="1.00" arrival="167.00" arrivalLane="e2_0" arrivalPos="88.79" arrivalSpeed="13.66" duration="22.00" routeLength="210.93" waitingTime="0.00" waitingCount="0" stopTime="0.00" timeLoss="5.93" rerouteNo="0" devices="tripinfo_NEe42" vType="emergency_car" speedFactor="1.00" vaporized=""/>
    <tripinfo id="WEn44" depart="152.00" departLane="e4_0" departPos="5.10" departSpeed="0.00" departDelay="0.00" arrival="169.00" arrivalLane="e2_0" arrivalPos="88.79" arrivalSpeed="16.09" duration="17.00" routeLength="195.28" waitingTime="0.00" waitingCount="0" stopTime="0.00" timeLoss="4.66" rerouteNo="0" devices="tripinfo_WEn44" vType="normal_car" speedFactor="1.18" vaporized=""/>
    <tripinfo id="NEe45" depart="154.00" departLane="e1a_0" departPos="6.60" departSpeed="0.00" departDelay="0.00" arrival="176.00" arrivalLane="e2_0" arrivalPos="88.79" arrivalSpeed="13.16" duration="22.00" routeLength="210.93" waitingTime="0.00" waitingCount="0" stopTime="0.00" timeLoss="5.95" rerouteNo="0" devices="tripinfo_NEe45" vType="emergency_car" speedFactor="1.00" vaporized=""/>
    <tripinfo id="NSe47" depart="160.00" departLane="e1a_0" departPos="6.60" departSpeed="0.00" departDelay="1.00" arrival="178.00" arrivalLane="e3_0" arrivalPos="68.21" arrivalSpeed="12.67" duration="18.00" routeLength="190.56" waitingTime="0.00" waitingCount="0" stopTime="0.00" timeLoss="3.85" rerouteNo="0" devices="tripinfo_NSe47" vType="emergency_car" speedFactor="1.00" vaporized=""/>
    <tripinfo id="NEn35" depart="123.00" departLane="e1a_0" departPos="5.10" departSpeed="0.00" departDelay="0.00" arrival="189.00" arrivalLane="e2_1" arrivalPos="88.79" arrivalSpeed="15.13" duration="66.00" routeLength="207.27" waitingTime="44.00" waitingCount="1" stopTime="0.00" timeLoss="52.09" rerouteNo="0" devices="tripinfo_NEn35" vType="normal_car" speedFactor="1.15" vaporized=""/>
    <tripinfo id="NEn40" depart="133.00" departLane="e1a_0" departPos="5.10" departSpeed="0.00" departDelay="0.00" arrival="193.00" arrivalLane="e2_1" arrivalPos="88.79" arrivalSpeed="13.66" duration="60.00" routeLength="207.27" waitingTime="33.00" waitingCount="1" stopTime="0.00" timeLoss="43.92" rerouteNo="0" devices="tripinfo_NEn40" vType="normal_car" speedFactor="1.02" vaporized=""/>
    <tripinfo id="NSn46" depart="157.00" departLane="e1a_0" departPos="5.10" departSpeed="0.00" departDelay="2.00" arrival="194.00" arrivalLane="e3_1" arrivalPos="68.21" arrivalSpeed="14.10" duration="37.00" routeLength="192.06" waitingTime="14.00" waitingCount="1" stopTime="0.00" timeLoss="24.15" rerouteNo="0" devices="tripinfo_NSn46" vType="normal_car" speedFactor="1.10" vaporized=""/>
    <tripinfo id="NEn43" depart="148.00" departLane="e1a_0" departPos="5.10" departSpeed="0.00" departDelay="4.00" arrival="195.00" arrivalLane="e2_1" arrivalPos="88.79" arrivalSpeed="13.05" duration="47.00" routeLength="207.27" waitingTime="21.00" waitingCount="1" stopTime="0.00" timeLoss="30.62" rerouteNo="0" devices="tripinfo_NEn43" vType="normal_car" speedFactor="0.97" vaporized=""/>
    <tripinfo id="NSn48" depart="171.00" departLane="e1a_0" departPos="5.10" departSpeed="0.00" departDelay="0.00" arrival="197.00" arrivalLane="e3_1" arrivalPos="68.21" arrivalSpeed="11.66" duration="26.00" routeLength="192.06" waitingTime="0.00" waitingCount="0" stopTime="0.00" timeLoss="10.11" rerouteNo="0" devices="tripinfo_NSn48" vType="normal_car" speedFactor="0.90" vaporized=""/>
    <tripinfo id="NSn52" depart="183.00" departLane="e1a_0" departPos="5.10" departSpeed="0.00" departDelay="0.00" arrival="200.00" arrivalLane="e3_1" arrivalPos="68.21" arrivalSpeed="13.98" duration="17.00" routeLength="192.06" waitingTime="0.00" waitingCount="0" stopTime="0.00" timeLoss="4.00" rerouteNo="0" devices="tripinfo_NSn52" vType="normal_car" speedFactor="1.09" vaporized=""/>
    <tripinfo id="NSn56" depart="192.00" departLane="e1a_0" departPos="5.10" departSpeed="0.00" departDelay="0.00" arrival="210.00" arrivalLane="e3_0" arrivalPos="68.21" arrivalSpeed="13.18" duration="18.00" routeLength="192.06" waitingTime="0.00" waitingCount="0" stopTime="0.00" timeLoss="3.51" rerouteNo="0" devices="tripinfo_NSn56" vType="normal_car" speedFactor="1.00" vaporized=""/>
    <tripinfo id="NEn54" depart="189.00" departLane="e1a_0" departPos="5.10" departSpeed="0.00" departDelay="0.00" arrival="211.00" arrivalLane="e2_1" arrivalPos="88.79" arrivalSpeed="14.15" duration="22.00" routeLength="207.27" waitingTime="0.00" waitingCount="0" stopTime="0.00" timeLoss="6.34" rerouteNo="0" devices="tripinfo_NEn54" vType="normal_car" speedFactor="1.04" vaporized=""/>
    <tripinfo id="NEe60" depart="201.00" departLane="e1a_0" departPos="6.60" departSpeed="0.00" departDelay="0.00" arrival="222.00" arrivalLane="e2_1" arrivalPos="88.79" arrivalSpeed="13.59" duration="21.00" routeLength="205.77" waitingTime="0.00" waitingCount="0" stopTime="0.00" timeLoss="5.40" rerouteNo="0" devices="tripinfo_NEe60" vType="emergency_car" speedFactor="1.00" vaporized=""/>
    <tripinfo id="NEe61" depart="206.00" departLane="e1a_0" departPos="6.60" departSpeed="0.00" departDelay="0.00" arrival="227.00" arrivalLane="e2_1" arrivalPos="88.79" arrivalSpeed="13.16" duration="21.00" routeLength="205.77" waitingTime="0.00" waitingCount="0" stopTime="0.00" timeLoss="5.42" rerouteNo="0" devices="tripinfo_NEe61" vType="emergency_car" speedFactor="1.00" vaporized=""/>
    <tripinfo id="NEe63" depart="209.00" departLane="e1a_0" departPos="6.60" departSpeed="0.00" departDelay="1.00" arrival="231.00" arrivalLane="e2_1" arrivalPos="88.79" arrivalSpeed="12.76" duration="22.00" routeLength="205.77" waitingTime="0.00" waitingCount="0" stopTime="0.00" timeLoss="5.82" rerouteNo="0" devices="tripinfo_NEe63" vType="emergency_car" speedFactor="1.00" vaporized=""/>
    <tripinfo id="WEn49" depart="173.00" departLane="e4_0" departPos="5.10" departSpeed="0.00" departDelay="0.00" arrival="235.00" arrivalLane="e2_0" arrivalPos="88.79" arrivalSpeed="14.01" duration="62.00" routeLength="195.28" waitingTime="39.00" waitingCount="1" stopTime="0.00" timeLoss="48.34" rerouteNo="0" devices="tripinfo_WEn49" vType="normal_car" speedFactor="1.03" vaporized=""/>
    <tripinfo id="WEn50" depart="176.00" departLane="e4_0" departPos="5.10" departSpeed="0.00" departDelay="2.00" arrival="238.00" arrivalLane="e2_0" arrivalPos="88.79" arrivalSpeed="12.17" duration="62.00" routeLength="195.28" waitingTime="37.00" waitingCount="1" stopTime="0.00" timeLoss="46.47" rerouteNo="0" devices="tripinfo_WEn50" vType="normal_car" speedFactor="0.96" vaporized=""/>
    <tripinfo id="WSe51" depart="181.00" departLane="e4_0" departPos="6.60" departSpeed="0.00" departDelay="0.00" arrival="239.00" arrivalLane="e3_0" arrivalPos="68.21" arrivalSpeed="13.10" duration="58.00" routeLength="170.31" waitingTime="33.00" waitingCount="1" stopTime="0.00" timeLoss="44.31" rerouteNo="0" devices="tripinfo_WSe51" vType="emergency_car" speedFactor="1.00" vaporized=""/>
    <tripinfo id="NSe71" depart="221.00" departLane="e1a_0" departPos="6.60" departSpeed="0.00" departDelay="0.00" arrival="241.00" arrivalLane="e3_0" arrivalPos="68.21" arrivalSpeed="13.74" duration="20.00" routeLength="190.56" waitingTime="0.00" waitingCount="0" stopTime="0.00" timeLoss="5.56" rerouteNo="0" devices="tripinfo_NSe71" vType="emergency_car" speedFactor="1.00" vaporized=""/>
    <tripinfo id="WEn53" depart="188.00" departLane="e4_0" departPos="5.10" departSpeed="0.00" departDelay="0.00" arrival="246.00" arrivalLane="e2_0" arrivalPos="88.79" arrivalSpeed="13.68" duration="58.00" routeLength="195.28" waitingTime="29.00" waitingCount="2" stopTime="0.00" timeLoss="44.04" rerouteNo="0" devices="tripinfo_WEn53" vType="normal_car" speedFactor="1.04" vaporized=""/>
    <tripinfo id="WEn55" depart="191.00" departLane="e4_0" departPos="5.10" departSpeed="0.00" departDelay="0.00" arrival="248.00" arrivalLane="e2_0" arrivalPos="88.79" arrivalSpeed="14.65" duration="57.00" routeLength="195.28" waitingTime="27.00" waitingCount="1" stopTime="0.00" timeLoss="43.34" rerouteNo="0" devices="tripinfo_WEn55" vType="normal_car" speedFactor="1.09" vaporized=""/>
    <tripinfo id="WSe57" depart="194.00" departLane="e4_0" departPos="6.60" departSpeed="0.00" departDelay="2.00" arrival="249.00" arrivalLane="e3_0" arrivalPos="68.21" arrivalSpeed="13.13" duration="55.00" routeLength="170.31" waitingTime="25.00" waitingCount="1" stopTime="0.00" timeLoss="41.30" rerouteNo="0" devices="tripinfo_WSe57" vType="emergency_car" speedFactor="1.00" vaporized=""/>
    <tripinfo id="WEn58" depart="197.00" departLane="e4_0" departPos="5.10" departSpeed="0.00" departDelay="3.00" arrival="253.00" arrivalLane="e2_0" arrivalPos="88.79" arrivalSpeed="12.43" duration="56.00" routeLength="195.28" waitingTime="24.00" waitingCount="1" stopTime="0.00" timeLoss="39.75" rerouteNo="0" devices="tripinfo_WEn58" vType="normal_car" speedFactor="0.90" vaporized=""/>
    <tripinfo id="WEe59" depart="200.00" departLane="e4_0" departPos="6.60" departSpeed="0.00" departDelay="0.00" arrival="255.00" arrivalLane="e2_0" arrivalPos="88.79" arrivalSpeed="13.56" duration="55.00" routeLength="193.78" waitingTime="23.00" waitingCount="2" stopTime="0.00" timeLoss="40.09" rerouteNo="0" devices="tripinfo_WEe59" vType="emergency_car" speedFactor="1.00" vaporized=""/>
    <tripinfo id="WEn62" depart="206.00" departLane="e4_0" departPos="5.10" departSpeed="0.00" departDelay="0.00" arrival="257.00" arrivalLane="e2_0" arrivalPos="88.79" arrivalSpeed="11.28" duration="51.00" routeLength="195.28" waitingTime="19.00" waitingCount="1" stopTime="0.00" timeLoss="34.54" rerouteNo="0" devices="tripinfo_WEn62" vType="normal_car" speedFactor="0.88" vaporized=""/>
    <tripinfo id="WSn64" depart="210.00" departLane="e4_0" departPos="5.10" departSpeed="0.00" departDelay="0.00" arrival="260.00" arrivalLane="e3_0" arrivalPos="68.21" arrivalSpeed="10.98" duration="50.00" routeLength="171.81" waitingTime="18.00" waitingCount="1" stopTime="0.00" timeLoss="33.39" rerouteNo="0" devices="tripinfo_WSn64" vType="normal_car" speedFactor="0.85" vaporized=""/>
    <tripinfo id="WSn66" depart="213.00" departLane="e4_0" departPos="5.10" departSpeed="0.00" departDelay="2.00" arrival="262.00" arrivalLane="e3_0" arrivalPos="68.21" arrivalSpeed="11.05" duration="49.00" routeLength="171.81" waitingTime="18.00" waitingCount="1" stopTime="0.00" timeLoss="33.22" rerouteNo="0" devices="tripinfo_WSn66" vType="normal_car" speedFactor="0.85" vaporized=""/>
    <tripinfo id="WEe67" depart="216.00" departLane="e4_0" departPos="6.60" departSpeed="0.00" departDelay="5.00" arrival="264.00" arrivalLane="e2_0" arrivalPos="88.79" arrivalSpeed="12.65" duration="48.00" routeLength="193.78" waitingTime="17.00" waitingCount="1" stopTime="0.00" timeLoss="33.99" rerouteNo="0" devices="tripinfo_WEe67" vType="emergency_car" speedFactor="1.00" vaporized=""/>
    <tripinfo id="WSe68" depart="240.00" departLane="e4_0" departPos="6.60" departSpeed="0.00" departDelay="27.00" arrival="266.00" arrivalLane="e3_0" arrivalPos="68.21" arrivalSpeed="12.73" duration="26.00" routeLength="170.31" waitingTime="0.00" waitingCount="0" stopTime="0.00" timeLoss="12.84" rerouteNo="0" devices="tripinfo_WSe68" vType="emergency_car" speedFactor="1.00" vaporized=""/>
    <tripinfo id="WSn72" depart="243.00" departLane="e4_0" departPos="5.10" departSpeed="0.00" departDelay="16.00" arrival="268.00" arrivalLane="e3_0" arrivalPos="68.21" arrivalSpeed="14.14" duration="25.00" routeLength="171.81" waitingTime="0.00" waitingCount="0" stopTime="0.00" timeLoss="12.68" rerouteNo="0" devices="tripinfo_WSn72" vType="normal_car" speedFactor="1.10" vaporized=""/>
    <tripinfo id="WSn73" depart="246.00" departLane="e4_0" departPos="5.10" departSpeed="0.00" departDelay="14.00" arrival="271.00" arrivalLane="e3_0" arrivalPos="68.21" arrivalSpeed="13.39" duration="25.00" routeLength="171.81" waitingTime="0.00" waitingCount="0" stopTime="0.00" timeLoss="11.06" rerouteNo="0" devices="tripinfo_WSn73" vType="normal_car" speedFactor="1.00" vaporized=""/>
    <tripinfo id="WEe75" depart="251.00" departLane="e4_0" departPos="6.60" departSpeed="0.00" departDelay="11.00" arrival="274.00" arrivalLane="e2_0" arrivalPos="88.79" arrivalSpeed="13.37" duration="23.00" routeLength="193.78" waitingTime="0.00" waitingCount="0" stopTime="0.00" timeLoss="8.23" rerouteNo="0" devices="tripinfo_WEe75" vType="emergency_car" speedFactor="1.00" vaporized=""/>
    <tripinfo id="NEn78" depart="255.00" departLane="e1a_0" departPos="5.10" departSpeed="0.00" departDelay="0.00" arrival="276.00" arrivalLane="e2_0" arrivalPos="88.79" arrivalSpeed="15.37" duration="21.00" routeLength="212.43" waitingTime="0.00" waitingCount="0" stopTime="0.00" timeLoss="6.14" rerouteNo="0" devices="tripinfo_NEn78" vType="normal_car" speedFactor="1.14" vaporized=""/>
    <tripinfo id="NEe65" depart="212.00" departLane="e1a_0" departPos="6.60" departSpeed="0.00" departDelay="1.00" arrival="280.00" arrivalLane="e2_1" arrivalPos="88.79" arrivalSpeed="13.30" duration="68.00" routeLength="205.77" waitingTime="43.00" waitingCount="1" stopTime="0.00" timeLoss="51.89" rerouteNo="0" devices="tripinfo_NEe65" vType="emergency_car" speedFactor="1.00" vaporized=""/>
    <tripinfo id="NSn69" depart="215.00" departLane="e1a_0" departPos="5.10" departSpeed="0.00" departDelay="0.00" arrival="280.00" arrivalLane="e3_1" arrivalPos="68.21" arrivalSpeed="15.83" duration="65.00" routeLength="192.06" waitingTime="42.00" waitingCount="1" stopTime="0.00" timeLoss="52.70" rerouteNo="0" devices="tripinfo_NSn69" vType="normal_car" speedFactor="1.17" vaporized=""/>