<?xml version="1.0" encoding="UTF-8"?>

<!-- generated on 01/11/21 13:41:43 by Eclipse SUMO GUI Version 1.7.0
<configuration xmlns:xsi="http://www.w3.org/2001/XMLSchema-instance" xsi:noNamespaceSchemaLocation="http://sumo.dlr.de/xsd/sumoConfiguration.xsd">

    <input>
        <net-file value="emergency.net.xml"/>
        <route-files value="emergency.rou.xml"/>
        <additional-files value="emergency.add.xml"/>
    </input>

    <output>
        <tripinfo-output value="tripinfo.xml"/>
    </output>

    <traci_server>
        <remote-port value="55975"/>
    </traci_server>

</configuration>
-->

<tripinfos xmlns:xsi="http://www.w3.org/2001/XMLSchema-instance" xsi:noNamespaceSchemaLocation="http://sumo.dlr.de/xsd/tripinfo_file.xsd">
</tripinfos>
id="NSn0" depart="1.00" departLane="e1a_0" departPos="5.10" departSpeed="0.00" departDelay="0.00" arrival="19.00" arrivalLane="e3_0" arrivalPos="68.21" arrivalSpeed="13.56" duration="18.00" routeLength="192.06" waitingTime="0.00" waitingCount="0" stopTime="0.00" timeLoss="4.07" rerouteNo="0" devices="tripinfo_NSn0" vType="normal_car" speedFactor="1.06" vaporized=""/>
    <tripinfo id="NEn2" depart="4.00" departLane="e1a_0" departPos="5.10" departSpeed="0.00" departDelay="2.00" arrival="26.00" arrivalLane="e2_1" arrivalPos="88.79" arrivalSpeed="13.72" duration="22.00" routeLength="207.27" waitingTime="0.00" waitingCount="0" stopTime="0.00" timeLoss="5.52" rerouteNo="0" devices="tripinfo_NEn2" vType="normal_car" speedFactor="1.01" vaporized=""/>
    <tripinfo id="NEn3" depart="7.00" departLane="e1a_0" departPos="5.10" departSpeed="0.00" departDelay="3.00" arrival="28.00" arrivalLane="e2_1" arrivalPos="88.79" arrivalSpeed="14.22" duration="21.00" routeLength="207.27" waitingTime="0.00" waitingCount="0" stopTime="0.00" timeLoss="6.67" rerouteNo="0" devices="tripinfo_NEn3" vType="normal_car" speedFactor="1.08" vaporized=""/>
    <tripinfo id="NEn5" depart="11.00" departLane="e1a_0" departPos="5.10" departSpeed="0.00" departDelay="0.00" arrival="35.00" arrivalLane="e2_1" arrivalPos="88.79" arrivalSpeed="10.77" duration="24.00" routeLength="207.27" waitingTime="0.00" waitingCount="0" stopTime="0.00" timeLoss="4.58" rerouteNo="0" devices="tripinfo_NEn5" vType="normal_car" speedFactor="0.83" vaporized=""/>
    <tripinfo id="NEn9" depart="22.00" departLane="e1a_0" departPos="5.10" departSpeed="0.00" departDelay="0.00" arrival="44.00" arrivalLane="e2_1" arrivalPos="88.79" arrivalSpeed="12.17" duration="22.00" routeLength="207.27" waitingTime="0.00" waitingCount="0" stopTime="0.00" timeLoss="5.49" rerouteNo="0" devices="tripinfo_NEn9" vType="normal_car" speedFactor="0.94" vaporized=""/>
    <tripinfo id="NEn11" depart="25.00" departLane="e1a_0" departPos="5.10" departSpeed="0.00" departDelay="0.00" arrival="46.00" arrivalLane="e2_1" arrivalPos="88.79" arrivalSpeed="14.13" duration="21.00" routeLength="207.27" waitingTime="0.00" waitingCount="0" stopTime="0.00" timeLoss="6.22" rerouteNo="0" devices="tripinfo_NEn11" vType="normal_car" speedFactor="1.09" vaporized=""/>
    <tripinfo id="NSn13" depart="32.00" departLane="e1a_0" departPos="5.10" departSpeed="0.00" departDelay="0.00" arrival="49.00" arrivalLane="e3_0" arrivalPos="68.21" arrivalSpeed="13.99" duration="17.00" routeLength="192.06" waitingTime="0.00" waitingCount="0" stopTime="0.00" timeLoss="3.25" rerouteNo="0" devices="tripinfo_NSn13" vType="normal_car" speedFactor="1.05" vaporized=""/>
    <tripinfo id="WSn1" depart="1.00" departLane="e4_0" departPos="5.10" departSpeed="0.00" departDelay="0.00" arrival="54.00" arrivalLane="e3_0" arrivalPos="68.21" arrivalSpeed="12.91" duration="53.00" routeLength="171.81" waitingTime="31.00" waitingCount="1" stopTime="0.00" timeLoss="38.48" rerouteNo="0" devices="tripinfo_WSn1" vType="normal_car" speedFactor="0.94" vaporized=""/>
    <tripinfo id="WEn4" depart="8.00" departLane="e4_0" departPos="5.10" departSpeed="0.00" departDelay="0.00" arrival="57.00" arrivalLane="e2_0" arrivalPos="88.79" arrivalSpeed="13.15" duration="49.00" routeLength="195.28" waitingTime="25.00" waitingCount="1" stopTime="0.00" timeLoss="34.72" rerouteNo="0" devices="tripinfo_WEn4" vType="normal_car" speedFactor="1.03" vaporized=""/>
    <tripinfo id="NSn14" depart="35.00" departLane="e1a_0" departPos="5.10" departSpeed="0.00" departDelay="0.00" arrival="59.00" arrivalLane="e3_0" arrivalPos="68.21" arrivalSpeed="15.49" duration="24.00" routeLength="192.06" waitingTime="2.00" waitingCount="1" stopTime="0.00" timeLoss="11.29" rerouteNo="0" devices="tripinfo_NSn14" vType="normal_car" speedFactor="1.12" vaporized=""/>
    <tripinfo id="WSe6" depart="15.00" departLane="e4_0" departPos="6.60" departSpeed="0.00" departDelay="0.00" arrival="63.00" arrivalLane="e3_0" arrivalPos="68.21" arrivalSpeed="13.66" duration="48.00" routeLength="170.31" waitingTime="20.00" waitingCount="2" stopTime="0.00" timeLoss="34.58" rerouteNo="0" devices="tripinfo_WSe6" vType="emergency_car" speedFactor="1.00" vaporized=""/>
    <tripinfo id="WSn7" depart="18.00" departLane="e4_0" departPos="5.10" departSpeed="0.00" departDelay="3.00" arrival="65.00" arrivalLane="e3_0" arrivalPos="68.21" arrivalSpeed="13.83" duration="47.00" routeLength="171.81" waitingTime="20.00" waitingCount="2" stopTime="0.00" timeLoss="34.46" rerouteNo="0" devices="tripinfo_WSn7" vType="normal_car" speedFactor="1.05" vaporized=""/>
</tripinfos>
