<?xml version="1.0" encoding="UTF-8"?>

<!-- generated on 02/08/21 13:31:00 by Eclipse SUMO GUI Version 1.7.0
<configuration xmlns:xsi="http://www.w3.org/2001/XMLSchema-instance" xsi:noNamespaceSchemaLocation="http://sumo.dlr.de/xsd/sumoConfiguration.xsd">

    <input>
        <net-file value="case0.net.xml"/>
        <route-files value="case0.rou.xml"/>
        <additional-files value="case0.add.xml"/>
    </input>

    <output>
        <emission-output value="emissionOutput.xml"/>
        <tripinfo-output value="tripinfo.xml"/>
    </output>

    <processing>
        <ignore-route-errors value="true"/>
    </processing>

    <traci_server>
        <remote-port value="63153"/>
    </traci_server>

</configuration>
-->

<tripinfos xmlns:xsi="http://www.w3.org/2001/XMLSchema-instance" xsi:noNamespaceSchemaLocation="http://sumo.dlr.de/xsd/tripinfo_file.xsd">
    <tripinfo id="veh3" depart="24.00" departLane="-H_0" departPos="5.10" departSpeed="0.00" departDelay="0.00" arrival="1121.00" arrivalLane="F_0" arrivalPos="1742.80" arrivalSpeed="14.03" duration="1097.00" routeLength="15744.90" waitingTime="0.00" waitingCount="0" stopTime="0.00" timeLoss="49.27" rerouteNo="1" devices="tripinfo_veh3 routing_veh3 emissions_veh3" vType="eVehicle" speedFactor="1.08" vaporized="">
        <emissions CO_abs="0" CO2_abs="0" HC_abs="0" PMx_abs="0" NOx_abs="0" fuel_abs="0" electricity_abs="0"/>
    </tripinfo>
    <tripinfo id="veh0" depart="3.00" departLane="-D_0" departPos="5.10" departSpeed="0.00" departDelay="0.00" arrival="1140.00" arrivalLane="B_0" arrivalPos="1742.80" arrivalSpeed="14.05" duration="1137.00" routeLength="15744.90" waitingTime="0.00" waitingCount="0" stopTime="0.00" timeLoss="67.05" rerouteNo="1" devices="tripinfo_veh0 routing_veh0 emissions_veh0" vType="normalVehicle" speedFactor="1.06" vaporized="">
        <emissions CO_abs="18884.554230" CO2_abs="2447912.279306" HC_abs="141.770986" PMx_abs="35.000541" NOx_abs="919.095301" fuel_abs="1052.252066" electricity_abs="0"/>
    </tripinfo>
    <tripinfo id="veh6" depart="38.00" departLane="-E_0" departPos="5.10" departSpeed="0.00" departDelay="0.00" arrival="1176.00" arrivalLane="G_0" arrivalPos="1742.80" arrivalSpeed="14.03" duration="1138.00" routeLength="15744.90" waitingTime="0.00" waitingCount="0" stopTime="0.00" timeLoss="53.47" rerouteNo="1" devices="tripinfo_veh6 routing_veh6 emissions_veh6" vType="eVehicle" speedFactor="1.05" vaporized="">
        <emissions CO_abs="0" CO2_abs="0" HC_abs="0" PMx_abs="0" NOx_abs="0" fuel_abs="0" electricity_abs="0"/>
    </tripinfo>
    <tripinfo id="veh1" depart="7.00" departLane="-F_0" departPos="5.10" departSpeed="0.00" departDelay="0.00" arrival="1281.00" arrivalLane="H_0" arrivalPos="1742.80" arrivalSpeed="12.22" duration="1274.00" routeLength="15744.90" waitingTime="0.00" waitingCount="0" stopTime="0.00" timeLoss="65.02" rerouteNo="1" devices="tripinfo_veh1 routing_veh1 emissions_veh1" vType="eVehicle" speedFactor="0.94" vaporized="">
        <emissions CO_abs="0" CO2_abs="0" HC_abs="0" PMx_abs="0" NOx_abs="0" fuel_abs="0" electricity_abs="0"/>
    </tripinfo>
    <tripinfo id="veh2" depart="10.00" departLane="-F_0" departPos="5.10" departSpeed="0.00" departDelay="3.00" arrival="1282.00" arrivalLane="H_0" arrivalPos="1742.80" arrivalSpeed="12.87" duration="1272.00" routeLength="15744.90" waitingTime="0.00" waitingCount="0" stopTime="0.00" timeLoss="149.90" rerouteNo="1" devices="tripinfo_veh2 routing_veh2 emissions_veh2" vType="normalVehicle" speedFactor="1.01" vaporized="">
        <emissions CO_abs="28792.402468" CO2_abs="2811274.063541" HC_abs="196.602825" PMx_abs="43.147578" NOx_abs="1092.732919" fuel_abs="1208.445585" electricity_abs="0"/>
    </tripinfo>
    <tripinfo id="veh4" depart="34.00" departLane="-F_0" departPos="5.10" departSpeed="0.00" departDelay="0.00" arrival="1284.00" arrivalLane="H_0" arrivalPos="1742.80" arrivalSpeed="13.06" duration="1250.00" routeLength="15744.90" waitingTime="0.00" waitingCount="0" stopTime="0.00" timeLoss="149.25" rerouteNo="1" devices="tripinfo_veh4 routing_veh4 emissions_veh4" vType="eVehicle" speedFactor="1.03" vaporized="">
        <emissions CO_abs="0" CO2_abs="0" HC_abs="0" PMx_abs="0" NOx_abs="0" fuel_abs="0" electricity_abs="0"/>
    </tripinfo>
    <tripinfo id="veh14" depart="117.00" departLane="-C_0" departPos="5.10" departSpeed="0.00" departDelay="0.00" arrival="1332.00" arrivalLane="A_0" arrivalPos="1742.80" arrivalSpeed="13.33" duration="1215.00" routeLength="15744.90" waitingTime="0.00" waitingCount="0" stopTime="0.00" timeLoss="71.03" rerouteNo="1" devices="tripinfo_veh14 routing_veh14 emissions_veh14" vType="eVehicle" speedFactor="0.99" vaporized="">
        <emissions CO_abs="0" CO2_abs="0" HC_abs="0" PMx_abs="0" NOx_abs="0" fuel_abs="0" electricity_abs="0"/>
    </tripinfo>
    <tripinfo id="veh8" depart="66.00" departLane="-E_0" departPos="5.10" departSpeed="0.00" departDelay="0.00" arrival="1342.00" arrivalLane="G_0" arrivalPos="1742.80" arrivalSpeed="12.78" duration="1276.00" routeLength="15744.90" waitingTime="0.00" waitingCount="0" stopTime="0.00" timeLoss="66.44" rerouteNo="1" devices="tripinfo_veh8 routing_veh8 emissions_veh8" vType="eVehicle" speedFactor="0.94" vaporized="">
        <emissions CO_abs="0" CO2_abs="0" HC_abs="0" PMx_abs="0" NOx_abs="0" fuel_abs="0" electricity_abs="0"/>
    </tripinfo>
    <tripinfo id="veh11" depart="103.00" departLane="-E_0" departPos="5.10" departSpeed="0.00" departDelay="0.00" arrival="1343.00" arrivalLane="G_0" arrivalPos="1742.80" arrivalSpeed="13.81" duration="1240.00" routeLength="15744.90" waitingTime="0.00" waitingCount="0" stopTime="0.00" timeLoss="135.24" rerouteNo="1" devices="tripinfo_veh11 routing_veh11 emissions_veh11" vType="eVehicle" speedFactor="1.03" vaporized="">
        <emissions CO_abs="0" CO2_abs="0" HC_abs="0" PMx_abs="0" NOx_abs="0" fuel_abs="0" electricity_abs="0"/>
    </tripinfo>
    <tripinfo id="veh30" depart="246.00" departLane="-E_0" departPos="5.10" departSpeed="0.00" departDelay="0.00" arrival="1345.00" arrivalLane="G_0" arrivalPos="1742.80" arrivalSpeed="15.85" duration="1099.00" routeLength="15744.90" waitingTime="0.00" waitingCount="0" stopTime="0.00" timeLoss="136.47" rerouteNo="1" devices="tripinfo_veh30 routing_veh30 emissions_veh30" vType="eVehicle" speedFactor="1.18" vaporized="">
        <emissions CO_abs="0" CO2_abs="0" HC_abs="0" PMx_abs="0" NOx_abs="0" fuel_abs="0" electricity_abs="0"/>
    </tripinfo>
    <tripinfo id="veh33" depart="282.00" departLane="-E_0" departPos="5.10" departSpeed="0.00" departDelay="0.00" arrival="1346.00" arrivalLane="G_0" arrivalPos="1742.80" arrivalSpeed="15.50" duration="1064.00" routeLength="15744.90" waitingTime="0.00" waitingCount="0" stopTime="0.00" timeLoss="96.64" rerouteNo="1" devices="tripinfo_veh33 routing_veh33 emissions_veh33" vType="normalVehicle" speedFactor="1.17" vaporized="">
        <emissions CO_abs="19816.659539" CO2_abs="2513027.182794" HC_abs="146.992294" PMx_abs="38.157353" NOx_abs="951.706153" fuel_abs="1080.239581" electricity_abs="0"/>
    </tripinfo>
    <tripinfo id="veh21" depart="175.00" departLane="-D_0" departPos="5.10" departSpeed="0.00" departDelay="0.00" arrival="1368.00" arrivalLane="B_0" arrivalPos="1742.80" arrivalSpeed="13.62" duration="1193.00" routeLength="15744.90" waitingTime="0.00" waitingCount="0" stopTime="0.00" timeLoss="70.16" rerouteNo="1" devices="tripinfo_veh21 routing_veh21 emissions_veh21" vType="normalVehicle" speedFactor="1.01" vaporized="">
        <emissions CO_abs="20126.391325" CO2_abs="2518227.207701" HC_abs="149.527000" PMx_abs="35.050917" NOx_abs="944.076194" fuel_abs="1082.479135" electricity_abs="0"/>
    </tripinfo>
    <tripinfo id="veh7" depart="39.00" departLane="-B_0" departPos="5.10" departSpeed="0.00" departDelay="0.00" arrival="1404.00" arrivalLane="D_0" arrivalPos="1742.80" arrivalSpeed="11.91" duration="1365.00" routeLength="15744.90" waitingTime="0.00" waitingCount="0" stopTime="0.00" timeLoss="85.55" rerouteNo="1" devices="tripinfo_veh7 routing_veh7 emissions_veh7" vType="normalVehicle" speedFactor="0.89" vaporized="">
        <emissions CO_abs="26593.148121" CO2_abs="2612818.373602" HC_abs="181.124617" PMx_abs="35.841080" NOx_abs="990.715486" fuel_abs="1123.144129" electricity_abs="0"/>
    </tripinfo>
    <tripinfo id="veh12" depart="105.00" departLane="-B_0" departPos="5.10" departSpeed="0.00" departDelay="0.00" arrival="1406.00" arrivalLane="D_0" arrivalPos="1742.80" arrivalSpeed="13.77" duration="1301.00" routeLength="15744.90" waitingTime="0.00" waitingCount="0" stopTime="0.00" timeLoss="217.92" rerouteNo="1" devices="tripinfo_veh12 routing_veh12 emissions_veh12" vType="normalVehicle" speedFactor="1.05" vaporized="">
        <emissions CO_abs="32063.294132" CO2_abs="2959398.672898" HC_abs="214.489970" PMx_abs="45.611993" NOx_abs="1153.163337" fuel_abs="1272.118933" electricity_abs="0"/>
    </tripinfo>
    <tripinfo id="veh13" depart="108.00" departLane="-B_0" departPos="5.10" departSpeed="0.00" departDelay="1.00" arrival="1408.00" arrivalLane="D_0" arrivalPos="1742.80" arrivalSpeed="14.52" duration="1300.00" routeLength="15744.90" waitingTime="0.00" waitingCount="0" stopTime="0.00" timeLoss="289.65" rerouteNo="1" devices="tripinfo_veh13 routing_veh13 emissions_veh13" vType="normalVehicle" speedFactor="1.12" vaporized="">
        <emissions CO_abs="39353.232052" CO2_abs="3353418.901454" HC_abs="257.630225" PMx_abs="55.405977" NOx_abs="1334.194227" fuel_abs="1441.487967" electricity_abs="0"/>
    </tripinfo>
    <tripinfo id="veh15" depart="122.00" departLane="-H_0" departPos="5.10" departSpeed="0.00" departDelay="0.00" arrival="1413.00" arrivalLane="F_0" arrivalPos="1742.80" arrivalSpeed="12.15" duration="1291.00" routeLength="15744.90" waitingTime="0.00" waitingCount="0" stopTime="0.00" timeLoss="67.83" rerouteNo="1" devices="tripinfo_veh15 routing_veh15 emissions_veh15" vType="eVehicle" speedFactor="0.93" vaporized="">
        <emissions CO_abs="0" CO2_abs="0" HC_abs="0" PMx_abs="0" NOx_abs="0" fuel_abs="0" electricity_abs="0"/>
    </tripinfo>
    <tripinfo id="veh17" depart="127.00" departLane="-B_0" departPos="5.10" departSpeed="0.00" departDelay="0.00" arrival="1416.00" arrivalLane="D_0" arrivalPos="1742.80" arrivalSpeed="12.46" duration="1289.00" routeLength="15744.90" waitingTime="2.00" waitingCount="1" stopTime="0.00" timeLoss="84.43" rerouteNo="1" devices="tripinfo_veh17 routing_veh17 emissions_veh17" vType="normalVehicle" speedFactor="0.94" vaporized="">
        <emissions CO_abs="22275.461782" CO2_abs="2443725.862618" HC_abs="157.726131" PMx_abs="33.476027" NOx_abs="920.378861" fuel_abs="1050.456613" electricity_abs="0"/>
    </tripinfo>
    <tripinfo id="veh22" depart="185.00" departLane="-C_0" departPos="5.10" departSpeed="0.00" departDelay="0.00" arrival="1421.00" arrivalLane="A_0" arrivalPos="1742.80" arrivalSpeed="12.52" duration="1236.00" routeLength="15744.90" waitingTime="0.00" waitingCount="0" stopTime="0.00" timeLoss="73.18" rerouteNo="1" devices="tripinfo_veh22 routing_veh22 emissions_veh22" vType="normalVehicle" speedFactor="0.98" vaporized="">
        <emissions CO_abs="21610.052264" CO2_abs="2519243.146272" HC_abs="156.547934" PMx_abs="35.107850" NOx_abs="949.153092" fuel_abs="1082.916646" electricity_abs="0"/>
    </tripinfo>
    <tripinfo id="veh38" depart="345.00" departLane="-E_0" departPos="5.10" departSpeed="0.00" departDelay="0.00" arrival="1423.00" arrivalLane="G_0" arrivalPos="1742.80" arrivalSpeed="15.01" duration="1078.00" routeLength="15744.90" waitingTime="0.00" waitingCount="0" stopTime="0.00" timeLoss="49.20" rerouteNo="1" devices="tripinfo_veh38 routing_veh38 emissions_veh38" vType="normalVehicle" speedFactor="1.10" vaporized="">
        <emissions CO_abs="14984.184284" CO2_abs="2277412.182371" HC_abs="119.381247" PMx_abs="31.904695" NOx_abs="843.075171" fuel_abs="978.960865" electricity_abs="0"/>
    </tripinfo>
    <tripinfo id="veh5" depart="37.00" departLane="-F_0" departPos="5.10" departSpeed="0.00" departDelay="2.00" arrival="1486.00" arrivalLane="H_0" arrivalPos="1742.80" arrivalSpeed="10.66" duration="1449.00" routeLength="15744.90" waitingTime="0.00" waitingCount="0" stopTime="0.00" timeLoss="84.28" rerouteNo="1" devices="tripinfo_veh5 routing_veh5 emissions_veh5" vType="normalVehicle" speedFactor="0.83" vaporized="">
        <emissions CO_abs="26878.937841" CO2_abs="2495022.140774" HC_abs="179.254677" PMx_abs="32.347519" NOx_abs="937.694726" fuel_abs="1072.512075" electricity_abs="0"/>
    </tripinfo>
    <tripinfo id="veh19" depart="166.00" departLane="-F_0" departPos="5.10" departSpeed="0.00" departDelay="0.00" arrival="1487.00" arrivalLane="H_0" arrivalPos="1742.80" arrivalSpeed="12.94" duration="1321.00" routeLength="15744.90" waitingTime="0.00" waitingCount="0" stopTime="0.00" timeLoss="342.27" rerouteNo="1" devices="tripinfo_veh19 routing_veh19 emissions_veh19" vType="eVehicle" speedFactor="1.16" vaporized="">
        <emissions CO_abs="0" CO2_abs="0" HC_abs="0" PMx_abs="0" NOx_abs="0" fuel_abs="0" electricity_abs="0"/>
    </tripinfo>
    <tripinfo id="veh16" depart="123.00" departLane="-G_0" departPos="5.10" departSpeed="0.00" departDelay="0.00" arrival="1489.00" arrivalLane="E_0" arrivalPos="1742.80" arrivalSpeed="11.09" duration="1366.00" routeLength="15744.90" waitingTime="0.00" waitingCount="0" stopTime="0.00" timeLoss="74.92" rerouteNo="1" devices="tripinfo_veh16 routing_veh16 emissions_veh16" vType="normalVehicle" speedFactor="0.88" vaporized="">
        <emissions CO_abs="23440.781687" CO2_abs="2441046.027972" HC_abs="162.568987" PMx_abs="31.838589" NOx_abs="913.621982" fuel_abs="1049.307650" electricity_abs="0"/>
    </tripinfo>
    <tripinfo id="veh37" depart="313.00" departLane="-F_0" departPos="5.10" departSpeed="0.00" departDelay="0.00" arrival="1489.00" arrivalLane="H_0" arrivalPos="1742.80" arrivalSpeed="15.23" duration="1176.00" routeLength="15744.90" waitingTime="0.00" waitingCount="0" stopTime="0.00" timeLoss="214.79" rerouteNo="1" devices="tripinfo_veh37 routing_veh37 emissions_veh37" vType="eVehicle" speedFactor="1.18" vaporized="">
        <emissions CO_abs="0" CO2_abs="0" HC_abs="0" PMx_abs="0" NOx_abs="0" fuel_abs="0" electricity_abs="0"/>
    </tripinfo>
    <tripinfo id="veh20" depart="170.00" departLane="-G_0" departPos="5.10" departSpeed="0.00" departDelay="0.00" arrival="1490.00" arrivalLane="E_0" arrivalPos="1742.80" arrivalSpeed="13.47" duration="1320.00" routeLength="15744.90" waitingTime="0.00" waitingCount="0" stopTime="0.00" timeLoss="206.52" rerouteNo="1" devices="tripinfo_veh20 routing_veh20 emissions_veh20" vType="normalVehicle" speedFactor="1.02" vaporized="">
        <emissions CO_abs="30318.587037" CO2_abs="2813238.930511" HC_abs="203.236695" PMx_abs="42.749867" NOx_abs="1093.678068" fuel_abs="1209.291796" electricity_abs="0"/>
    </tripinfo>
    <tripinfo id="veh32" depart="277.00" departLane="-G_0" departPos="5.10" departSpeed="0.00" departDelay="0.00" arrival="1492.00" arrivalLane="E_0" arrivalPos="1742.80" arrivalSpeed="13.07" duration="1215.00" routeLength="15744.90" waitingTime="0.00" waitingCount="0" stopTime="0.00" timeLoss="86.98" rerouteNo="1" devices="tripinfo_veh32 routing_veh32 emissions_veh32" vType="eVehicle" speedFactor="1.01" vaporized="">
        <emissions CO_abs="0" CO2_abs="0" HC_abs="0" PMx_abs="0" NOx_abs="0" fuel_abs="0" electricity_abs="0"/>
    </tripinfo>
    <tripinfo id="veh34" depart="285.00" departLane="-G_0" departPos="5.10" departSpeed="0.00" departDelay="0.00" arrival="1494.00" arrivalLane="E_0" arrivalPos="1742.80" arrivalSpeed="13.71" duration="1209.00" routeLength="15744.90" waitingTime="0.00" waitingCount="0" stopTime="0.00" timeLoss="68.98" rerouteNo="1" devices="tripinfo_veh34 routing_veh34 emissions_veh34" vType="eVehicle" speedFactor="0.99" vaporized="">
        <emissions CO_abs="0" CO2_abs="0" HC_abs="0" PMx_abs="0" NOx_abs="0" fuel_abs="0" electricity_abs="0"/>
    </tripinfo>
    <tripinfo id="veh9" depart="85.00" departLane="-A_0" departPos="5.10" departSpeed="0.00" departDelay="0.00" arrival="1496.00" arrivalLane="C_0" arrivalPos="1742.80" arrivalSpeed="11.54" duration="1411.00" routeLength="15744.90" waitingTime="0.00" waitingCount="0" stopTime="0.00" timeLoss="88.13" rerouteNo="1" devices="tripinfo_veh9 routing_veh9 emissions_veh9" vType="normalVehicle" speedFactor="0.86" vaporized="">
        <emissions CO_abs="27116.515972" CO2_abs="2531955.020894" HC_abs="181.501542" PMx_abs="34.384559" NOx_abs="960.464358" fuel_abs="1088.385676" electricity_abs="0"/>
    </tripinfo>
    <tripinfo id="veh10" depart="93.00" departLane="-A_0" departPos="5.10" departSpeed="0.00" departDelay="0.00" arrival="1498.00" arrivalLane="C_0" arrivalPos="1742.80" arrivalSpeed="14.11" duration="1405.00" routeLength="15744.90" waitingTime="0.00" waitingCount="0" stopTime="0.00" timeLoss="365.14" rerouteNo="1" devices="tripinfo_veh10 routing_veh10 emissions_veh10" vType="eVehicle" speedFactor="1.09" vaporized="">
        <emissions CO_abs="0" CO2_abs="0" HC_abs="0" PMx_abs="0" NOx_abs="0" fuel_abs="0" electricity_abs="0"/>
    </tripinfo>
    <tripinfo id="veh18" depart="154.00" departLane="-A_0" departPos="5.10" departSpeed="0.00" departDelay="0.00" arrival="1500.00" arrivalLane="C_0" arrivalPos="1742.80" arrivalSpeed="12.63" duration="1346.00" routeLength="15744.90" waitingTime="0.00" waitingCount="0" stopTime="0.00" timeLoss="134.68" rerouteNo="1" devices="tripinfo_veh18 routing_veh18 emissions_veh18" vType="eVehicle" speedFactor="0.94" vaporized="">
        <emissions CO_abs="0" CO2_abs="0" HC_abs="0" PMx_abs="0" NOx_abs="0" fuel_abs="0" electricity_abs="0"/>
    </tripinfo>
    <tripinfo id="veh27" depart="226.00" departLane="-A_0" departPos="5.10" departSpeed="0.00" departDelay="0.00" arrival="1502.00" arrivalLane="C_0" arrivalPos="1742.80" arrivalSpeed="12.06" duration="1276.00" routeLength="15744.90" waitingTime="0.00" waitingCount="0" stopTime="0.00" timeLoss="80.60" rerouteNo="1" devices="tripinfo_veh27 routing_veh27 emissions_veh27" vType="eVehicle" speedFactor="0.95" vaporized="">
        <emissions CO_abs="0" CO2_abs="0" HC_abs="0" PMx_abs="0" NOx_abs="0" fuel_abs="0" electricity_abs="0"/>
    </tripinfo>
    <tripinfo id="veh42" depart="378.00" departLane="-A_0" departPos="5.10" departSpeed="0.00" departDelay="0.00" arrival="1503.00" arrivalLane="C_0" arrivalPos="1742.80" arrivalSpeed="14.27" duration="1125.00" routeLength="15744.90" waitingTime="0.00" waitingCount="0" stopTime="0.00" timeLoss="86.74" rerouteNo="1" devices="tripinfo_veh42 routing_veh42 emissions_veh42" vType="normalVehicle" speedFactor="1.09" vaporized="">
        <emissions CO_abs="21693.736607" CO2_abs="2529125.936543" HC_abs="156.550200" PMx_abs="38.417177" NOx_abs="966.099039" fuel_abs="1087.160501" electricity_abs="0"/>
    </tripinfo>
    <tripinfo id="veh29" depart="244.00" departLane="-H_0" departPos="5.10" departSpeed="0.00" departDelay="0.00" arrival="1526.00" arrivalLane="F_0" arrivalPos="1742.80" arrivalSpeed="12.19" duration="1282.00" routeLength="15744.90" waitingTime="0.00" waitingCount="0" stopTime="0.00" timeLoss="64.81" rerouteNo="1" devices="tripinfo_veh29 routing_veh29 emissions_veh29" vType="eVehicle" speedFactor="0.93" vaporized="">
        <emissions CO_abs="0" CO2_abs="0" HC_abs="0" PMx_abs="0" NOx_abs="0" fuel_abs="0" electricity_abs="0"/>
    </tripinfo>
    <tripinfo id="veh35" depart="286.00" departLane="-H_0" departPos="5.10" departSpeed="0.00" departDelay="0.00" arrival="1528.00" arrivalLane="F_0" arrivalPos="1742.80" arrivalSpeed="13.92" duration="1242.00" routeLength="15744.90" waitingTime="0.00" waitingCount="0" stopTime="0.00" timeLoss="129.87" rerouteNo="1" devices="tripinfo_veh35 routing_veh35 emissions_veh35" vType="eVehicle" speedFactor="1.02" vaporized="">
        <emissions CO_abs="0" CO2_abs="0" HC_abs="0" PMx_abs="0" NOx_abs="0" fuel_abs="0" electricity_abs="0"/>
    </tripinfo>
    <tripinfo id="veh23" depart="198.00" departLane="-D_0" departPos="5.10" departSpeed="0.00" departDelay="0.00" arrival="1557.00" arrivalLane="B_0" arrivalPos="1742.80" arrivalSpeed="11.73" duration="1359.00" routeLength="15744.90" waitingTime="0.00" waitingCount="0" stopTime="0.00" timeLoss="84.07" rerouteNo="1" devices="tripinfo_veh23 routing_veh23 emissions_veh23" vType="normalVehicle" speedFactor="0.89" vaporized="">
        <emissions CO_abs="24898.239026" CO2_abs="2498315.515884" HC_abs="170.739991" PMx_abs="33.935886" NOx_abs="944.321468" fuel_abs="1073.924160" electricity_abs="0"/>
    </tripinfo>
    <tripinfo id="veh44" depart="410.00" departLane="-B_0" departPos="5.10" departSpeed="0.00" departDelay="0.00" arrival="1565.00" arrivalLane="D_0" arrivalPos="1742.80" arrivalSpeed="14.36" duration="1155.00" routeLength="15744.90" waitingTime="0.00" waitingCount="0" stopTime="0.00" timeLoss="68.46" rerouteNo="1" devices="tripinfo_veh44 routing_veh44 emissions_veh44" vType="normalVehicle" speedFactor="1.04" vaporized="">
        <emissions CO_abs="19756.515927" CO2_abs="2523594.141358" HC_abs="147.634302" PMx_abs="35.865302" NOx_abs="947.838331" fuel_abs="1084.784884" electricity_abs="0"/>
    </tripinfo>
    <tripinfo id="veh45" depart="420.00" departLane="-B_0" departPos="5.10" departSpeed="0.00" departDelay="0.00" arrival="1567.00" arrivalLane="D_0" arrivalPos="1742.80" arrivalSpeed="14.98" duration="1147.00" routeLength="15744.90" waitingTime="0.00" waitingCount="0" stopTime="0.00" timeLoss="104.69" rerouteNo="1" devices="tripinfo_veh45 routing_veh45 emissions_veh45" vType="normalVehicle" speedFactor="1.09" vaporized="">
        <emissions CO_abs="24987.145257" CO2_abs="2761886.528301" HC_abs="177.623253" PMx_abs="42.695857" NOx_abs="1063.473684" fuel_abs="1187.213815" electricity_abs="0"/>
    </tripinfo>
    <tripinfo id="veh53" depart="489.00" departLane="-E_0" departPos="5.10" departSpeed="0.00" departDelay="0.00" arrival="1574.00" arrivalLane="G_0" arrivalPos="1742.80" arrivalSpeed="14.61" duration="1085.00" routeLength="15744.90" waitingTime="0.00" waitingCount="0" stopTime="0.00" timeLoss="49.70" rerouteNo="1" devices="tripinfo_veh53 routing_veh53 emissions_veh53" vType="normalVehicle" speedFactor="1.10" vaporized="">
        <emissions CO_abs="15078.333268" CO2_abs="2239452.699347" HC_abs="118.983308" PMx_abs="31.473500" NOx_abs="830.560260" fuel_abs="962.643781" electricity_abs="0"/>
    </tripinfo>
    <tripinfo id="veh25" depart="218.00" departLane="-D_0" departPos="5.10" departSpeed="0.00" departDelay="0.00" arrival="1604.00" arrivalLane="B_0" arrivalPos="1742.80" arrivalSpeed="12.11" duration="1386.00" routeLength="15744.90" waitingTime="0.00" waitingCount="0" stopTime="0.00" timeLoss="86.84" rerouteNo="1" devices="tripinfo_veh25 routing_veh25 emissions_veh25" vType="normalVehicle" speedFactor="0.87" vaporized="">
        <emissions CO_abs="26397.339134" CO2_abs="2550852.469114" HC_abs="178.708598" PMx_abs="34.619807" NOx_abs="965.861482" fuel_abs="1096.508343" electricity_abs="0"/>
    </tripinfo>
    <tripinfo id="veh46" depart="422.00" departLane="-H_0" departPos="5.10" departSpeed="0.00" departDelay="0.00" arrival="1617.00" arrivalLane="F_0" arrivalPos="1742.80" arrivalSpeed="13.77" duration="1195.00" routeLength="15744.90" waitingTime="0.00" waitingCount="0" stopTime="0.00" timeLoss="57.58" rerouteNo="1" devices="tripinfo_veh46 routing_veh46 emissions_veh46" vType="eVehicle" speedFactor="1.00" vaporized="">
        <emissions CO_abs="0" CO2_abs="0" HC_abs="0" PMx_abs="0" NOx_abs="0" fuel_abs="0" electricity_abs="0"/>
    </tripinfo>
    <tripinfo id="veh60" depart="524.00" departLane="-E_0" departPos="5.10" departSpeed="0.00" departDelay="0.00" arrival="1621.00" arrivalLane="G_0" arrivalPos="1742.80" arrivalSpeed="14.98" duration="1097.00" routeLength="15744.90" waitingTime="0.00" waitingCount="0" stopTime="0.00" timeLoss="49.74" rerouteNo="1" devices="tripinfo_veh60 routing_veh60 emissions_veh60" vType="eVehicle" speedFactor="1.08" vaporized="">
        <emissions CO_abs="0" CO2_abs="0" HC_abs="0" PMx_abs="0" NOx_abs="0" fuel_abs="0" electricity_abs="0"/>
    </tripinfo>
    <tripinfo id="veh52" depart="482.00" departLane="-F_0" departPos="5.10" departSpeed="0.00" departDelay="0.00" arrival="1653.00" arrivalLane="H_0" arrivalPos="1742.80" arrivalSpeed="13.36" duration="1171.00" routeLength="15744.90" waitingTime="0.00" waitingCount="0" stopTime="0.00" timeLoss="56.05" rerouteNo="1" devices="tripinfo_veh52 routing_veh52 emissions_veh52" vType="normalVehicle" speedFactor="1.02" vaporized="">
        <emissions CO_abs="16438.061608" CO2_abs="2285752.100673" HC_abs="127.215306" PMx_abs="30.865749" NOx_abs="847.667920" fuel_abs="982.548132" electricity_abs="0"/>
    </tripinfo>
    <tripinfo id="veh24" depart="208.00" departLane="-C_0" departPos="5.10" departSpeed="0.00" departDelay="0.00" arrival="1673.00" arrivalLane="A_0" arrivalPos="1742.80" arrivalSpeed="10.72" duration="1465.00" routeLength="15744.90" waitingTime="0.00" waitingCount="0" stopTime="0.00" timeLoss="92.01" rerouteNo="1" devices="tripinfo_veh24 routing_veh24 emissions_veh24" vType="eVehicle" speedFactor="0.83" vaporized="">
        <emissions CO_abs="0" CO2_abs="0" HC_abs="0" PMx_abs="0" NOx_abs="0" fuel_abs="0" electricity_abs="0"/>
    </tripinfo>
    <tripinfo id="veh26" depart="222.00" departLane="-C_0" departPos="5.10" departSpeed="0.00" departDelay="0.00" arrival="1675.00" arrivalLane="A_0" arrivalPos="1742.80" arrivalSpeed="12.59" duration="1453.00" routeLength="15744.90" waitingTime="0.00" waitingCount="0" stopTime="0.00" timeLoss="216.71" rerouteNo="1" devices="tripinfo_veh26 routing_veh26 emissions_veh26" vType="normalVehicle" speedFactor="0.92" vaporized="">
        <emissions CO_abs="38537.527071" CO2_abs="3094328.783522" HC_abs="247.139143" PMx_abs="47.237278" NOx_abs="1213.939931" fuel_abs="1330.123526" electricity_abs="0"/>
    </tripinfo>
    <tripinfo id="veh28" depart="227.00" departLane="-C_0" departPos="5.10" departSpeed="0.00" departDelay="0.00" arrival="1677.00" arrivalLane="A_0" arrivalPos="1742.80" arrivalSpeed="15.58" duration="1450.00" routeLength="15744.90" waitingTime="0.00" waitingCount="0" stopTime="0.00" timeLoss="447.56" rerouteNo="1" devices="tripinfo_veh28 routing_veh28 emissions_veh28" vType="eVehicle" speedFactor="1.13" vaporized="">
        <emissions CO_abs="0" CO2_abs="0" HC_abs="0" PMx_abs="0" NOx_abs="0" fuel_abs="0" electricity_abs="0"/>
    </tripinfo>
    <tripinfo id="veh31" depart="265.00" departLane="-C_0" departPos="5.10" departSpeed="0.00" departDelay="0.00" arrival="1678.00" arrivalLane="A_0" arrivalPos="1742.80" arrivalSpeed="15.10" duration="1413.00" routeLength="15744.90" waitingTime="0.00" waitingCount="0" stopTime="0.00" timeLoss="430.90" rerouteNo="1" devices="tripinfo_veh31 routing_veh31 emissions_veh31" vType="eVehicle" speedFactor="1.15" vaporized="">
        <emissions CO_abs="0" CO2_abs="0" HC_abs="0" PMx_abs="0" NOx_abs="0" fuel_abs="0" electricity_abs="0"/>
    </tripinfo>
    <tripinfo id="veh36" depart="293.00" departLane="-C_0" departPos="5.10" departSpeed="0.00" departDelay="0.00" arrival="1680.00" arrivalLane="A_0" arrivalPos="1742.80" arrivalSpeed="12.52" duration="1387.00" routeLength="15744.90" waitingTime="0.00" waitingCount="0" stopTime="0.00" timeLoss="221.97" rerouteNo="1" devices="tripinfo_veh36 routing_veh36 emissions_veh36" vType="normalVehicle" speedFactor="0.97" vaporized="">
        <emissions CO_abs="42200.221341" CO2_abs="3346580.979557" HC_abs="270.393796" PMx_abs="54.934417" NOx_abs="1335.464549" fuel_abs="1438.551079" electricity_abs="0"/>
    </tripinfo>
    <tripinfo id="veh39" depart="349.00" departLane="-G_0" departPos="5.10" departSpeed="0.00" departDelay="0.00" arrival="1680.00" arrivalLane="E_0" arrivalPos="1742.80" arrivalSpeed="11.41" duration="1331.00" routeLength="15744.90" waitingTime="0.00" waitingCount="0" stopTime="0.00" timeLoss="72.09" rerouteNo="1" devices="tripinfo_veh39 routing_veh39 emissions_veh39" vType="eVehicle" speedFactor="0.90" vaporized="">
        <emissions CO_abs="0" CO2_abs="0" HC_abs="0" PMx_abs="0" NOx_abs="0" fuel_abs="0" electricity_abs="0"/>
    </tripinfo>
    <tripinfo id="veh40" depart="351.00" departLane="-C_0" departPos="5.10" departSpeed="0.00" departDelay="0.00" arrival="1682.00" arrivalLane="A_0" arrivalPos="1742.80" arrivalSpeed="13.46" duration="1331.00" routeLength="15744.90" waitingTime="0.00" waitingCount="0" stopTime="0.00" timeLoss="230.33" rerouteNo="1" devices="tripinfo_veh40 routing_veh40 emissions_veh40" vType="normalVehicle" speedFactor="1.03" vaporized="">
        <emissions CO_abs="39681.043059" CO2_abs="3291898.303162" HC_abs="257.458656" PMx_abs="53.954755" NOx_abs="1308.644225" fuel_abs="1415.044321" electricity_abs="0"/>
    </tripinfo>
    <tripinfo id="veh41" depart="365.00" departLane="-G_0" departPos="5.10" departSpeed="0.00" departDelay="0.00" arrival="1682.00" arrivalLane="E_0" arrivalPos="1742.80" arrivalSpeed="13.18" duration="1317.00" routeLength="15744.90" waitingTime="0.00" waitingCount="0" stopTime="0.00" timeLoss="132.04" rerouteNo="1" devices="tripinfo_veh41 routing_veh41 emissions_veh41" vType="normalVehicle" speedFactor="0.96" vaporized="">
        <emissions CO_abs="30196.917721" CO2_abs="2873456.158361" HC_abs="204.220446" PMx_abs="43.248310" NOx_abs="1113.888847" fuel_abs="1235.176688" electricity_abs="0"/>
    </tripinfo>
    <tripinfo id="veh43" depart="390.00" departLane="-C_0" departPos="5.10" departSpeed="0.00" departDelay="0.00" arrival="1684.00" arrivalLane="A_0" arrivalPos="1742.80" arrivalSpeed="13.80" duration="1294.00" routeLength="15744.90" waitingTime="0.00" waitingCount="0" stopTime="0.00" timeLoss="200.88" rerouteNo="1" devices="tripinfo_veh43 routing_veh43 emissions_veh43" vType="normalVehicle" speedFactor="1.04" vaporized="">