<?xml version="1.0" encoding="UTF-8"?>

<!-- generated on 02/08/21 12:36:09 by Eclipse SUMO GUI Version 1.7.0
<configuration xmlns:xsi="http://www.w3.org/2001/XMLSchema-instance" xsi:noNamespaceSchemaLocation="http://sumo.dlr.de/xsd/sumoConfiguration.xsd">

    <input>
        <net-file value="caseVEP.net.xml"/>
        <route-files value="caseVEP.rou.xml"/>
        <additional-files value="caseVEP.add.xml"/>
    </input>

    <output>
        <emission-output value="emissionOutput.xml"/>
        <tripinfo-output value="tripinfo.xml"/>
    </output>

    <processing>
        <ignore-route-errors value="true"/>
    </processing>

    <traci_server>
        <remote-port value="62572"/>
    </traci_server>

</configuration>
-->

<emission-export xmlns:xsi="http://www.w3.org/2001/XMLSchema-instance" xsi:noNamespaceSchemaLocation="http://sumo.dlr.de/xsd/emission_file.xsd">
    <timestep time="0.00"/>
    <timestep time="1.00"/>
    <timestep time="2.00"/>
    <timestep time="3.00">
        <vehicle id="veh0" eclass="HBEFA3/PC_G_EU4" CO2="2624.72" CO="164.78" HC="0.81" NOx="1.20" PMx="0.07" fuel="1.13" electricity="0.00" noise="55.94" route="!veh0!var#1" type="normalVehicle" waiting="0.00" lane="-D_0" pos="5.10" speed="0.00" angle="270.00" x="13994.90" y="-6998.40"/>
    </timestep>
    <timestep time="4.00">
        <vehicle id="veh0" eclass="HBEFA3/PC_G_EU4" CO2="3201.94" CO="147.37" HC="0.75" NOx="1.43" PMx="0.07" fuel="1.38" electricity="0.00" noise="64.20" route="!veh0!var#1" type="normalVehicle" waiting="0.00" lane="-D_0" pos="6.83" speed="1.73" angle="270.00" x="13993.17" y="-6998.40"/>
    </timestep>
    <timestep time="5.00">
        <vehicle id="veh0" eclass="HBEFA3/PC_G_EU4" CO2="3554.73" CO="131.16" HC="0.68" NOx="1.55" PMx="0.07" fuel="1.53" electricity="0.00" noise="63.84" route="!veh0!var#1" type="normalVehicle" waiting="0.00" lane="-D_0" pos="10.06" speed="3.23" angle="270.00" x="13989.94" y="-6998.40"/>
    </timestep>
    <timestep time="6.00">
        <vehicle id="veh0" eclass="HBEFA3/PC_G_EU4" CO2="6066.30" CO="146.89" HC="0.81" NOx="2.67" PMx="0.13" fuel="2.61" electricity="0.00" noise="69.69" route="!veh0!var#1" type="normalVehicle" waiting="0.00" lane="-D_0" pos="15.88" speed="5.82" angle="270.00" x="13984.12" y="-6998.40"/>
    </timestep>
    <timestep time="7.00">
        <vehicle id="veh0" eclass="HBEFA3/PC_G_EU4" CO2="7222.67" CO="142.39" HC="0.82" NOx="3.15" PMx="0.15" fuel="3.10" electricity="0.00" noise="69.93" route="!veh0!var#1" type="normalVehicle" waiting="0.00" lane="-D_0" pos="24.10" speed="8.22" angle="270.00" x="13975.90" y="-6998.40"/>
        <vehicle id="veh1" eclass="Zero/default" CO2="0.00" CO="0.00" HC="0.00" NOx="0.00" PMx="0.00" fuel="0.00" electricity="0.00" noise="0.00" route="!veh1!var#1" type="eVehicle" waiting="0.00" lane="-F_0" pos="5.10" speed="0.00" angle="180.00" x="6998.40" y="1744.90"/>
    </timestep>
    <timestep time="8.00">
        <vehicle id="veh0" eclass="HBEFA3/PC_G_EU4" CO2="8399.40" CO="144.06" HC="0.86" NOx="3.65" PMx="0.18" fuel="3.61" electricity="0.00" noise="70.56" route="!veh0!var#1" type="normalVehicle" waiting="0.00" lane="-D_0" pos="34.61" speed="10.51" angle="270.00" x="13965.39" y="-6998.40"/>
        <vehicle id="veh1" eclass="Zero/default" CO2="0.00" CO="0.00" HC="0.00" NOx="0.00" PMx="0.00" fuel="0.00" electricity="0.00" noise="0.00" route="!veh1!var#1" type="eVehicle" waiting="0.00" lane="-F_0" pos="7.57" speed="2.47" angle="180.00" x="6998.40" y="1742.43"/>
    </timestep>
    <timestep time="9.00">
        <vehicle id="veh0" eclass="HBEFA3/PC_G_EU4" CO2="10407.68" CO="166.34" HC="1.01" NOx="4.54" PMx="0.22" fuel="4.47" electricity="0.00" noise="72.27" route="!veh0!var#1" type="normalVehicle" waiting="0.00" lane="-D_0" pos="47.53" speed="12.93" angle="270.00" x="13952.47" y="-6998.40"/>
        <vehicle id="veh1" eclass="Zero/default" CO2="0.00" CO="0.00" HC="0.00" NOx="0.00" PMx="0.00" fuel="0.00" electricity="0.00" noise="0.00" route="!veh1!var#1" type="eVehicle" waiting="0.00" lane="-F_0" pos="11.55" speed="3.99" angle="180.00" x="6998.40" y="1738.45"/>
    </timestep>
    <timestep time="10.00">
        <vehicle id="veh0" eclass="HBEFA3/PC_G_EU4" CO2="6935.09" CO="86.98" HC="0.56" NOx="2.87" PMx="0.13" fuel="2.98" electricity="0.00" noise="68.37" route="!veh0!var#1" type="normalVehicle" waiting="0.00" lane="-D_0" pos="61.70" speed="14.17" angle="270.00" x="13938.30" y="-6998.40"/>
        <vehicle id="veh1" eclass="Zero/default" CO2="0.00" CO="0.00" HC="0.00" NOx="0.00" PMx="0.00" fuel="0.00" electricity="0.00" noise="0.00" route="!veh1!var#1" type="eVehicle" waiting="0.00" lane="-F_0" pos="17.60" speed="6.04" angle="180.00" x="6998.40" y="1732.40"/>
        <vehicle id="veh2" eclass="HBEFA3/PC_G_EU4" CO2="2624.72" CO="164.78" HC="0.81" NOx="1.20" PMx="0.07" fuel="1.13" electricity="0.00" noise="55.94" route="!veh2!var#1" type="normalVehicle" waiting="0.00" lane="-F_0" pos="5.10" speed="0.00" angle="180.00" x="6998.40" y="1744.90"/>
    </timestep>
    <timestep time="11.00">
        <vehicle id="veh0" eclass="HBEFA3/PC_G_EU4" CO2="0.00" CO="0.00" HC="0.00" NOx="0.00" PMx="0.00" fuel="0.00" electricity="0.00" noise="64.53" route="!veh0!var#1" type="normalVehicle" waiting="0.00" lane="-D_0" pos="75.78" speed="14.09" angle="270.00" x="13924.22" y="-6998.40"/>
        <vehicle id="veh1" eclass="Zero/default" CO2="0.00" CO="0.00" HC="0.00" NOx="0.00" PMx="0.00" fuel="0.00" electricity="0.00" noise="0.00" route="!veh1!var#1" type="eVehicle" waiting="0.00" lane="-F_0" pos="25.60" speed="8.00" angle="180.00" x="6998.40" y="1724.40"/>
        <vehicle id="veh2" eclass="HBEFA3/PC_G_EU4" CO2="3478.32" CO="148.02" HC="0.76" NOx="1.55" PMx="0.08" fuel="1.50" electricity="0.00" noise="65.70" route="!veh2!var#1" type="normalVehicle" waiting="0.00" lane="-F_0" pos="7.14" speed="2.04" angle="180.00" x="6998.40" y="1742.86"/>
    </timestep>
    <timestep time="12.00">
        <vehicle id="veh0" eclass="HBEFA3/PC_G_EU4" CO2="2629.77" CO="0.00" HC="0.05" NOx="0.83" PMx="0.02" fuel="1.13" electricity="0.00" noise="64.92" route="!veh0!var#1" type="normalVehicle" waiting="0.00" lane="-D_0" pos="89.94" speed="14.16" angle="270.00" x="13910.06" y="-6998.40"/>
        <vehicle id="veh1" eclass="Zero/default" CO2="0.00" CO="0.00" HC="0.00" NOx="0.00" PMx="0.00" fuel="0.00" electricity="0.00" noise="0.00" route="!veh1!var#1" type="eVehicle" waiting="0.00" lane="-F_0" pos="35.29" speed="9.70" angle="180.00" x="6998.40" y="1714.71"/>
        <vehicle id="veh2" eclass="HBEFA3/PC_G_EU4" CO2="4741.08" CO="140.10" HC="0.75" NOx="2.09" PMx="0.10" fuel="2.04" electricity="0.00" noise="67.58" route="!veh2!var#1" type="normalVehicle" waiting="0.00" lane="-F_0" pos="11.44" speed="4.30" angle="180.00" x="6998.40" y="1738.56"/>
    </timestep>
    <timestep time="13.00">
        <vehicle id="veh0" eclass="HBEFA3/PC_G_EU4" CO2="0.00" CO="0.00" HC="0.00" NOx="0.00" PMx="0.00" fuel="0.00" electricity="0.00" noise="64.23" route="!veh0!var#1" type="normalVehicle" waiting="0.00" lane="-D_0" pos="103.92" speed="13.98" angle="270.00" x="13896.08" y="-6998.40"/>
        <vehicle id="veh1" eclass="Zero/default" CO2="0.00" CO="0.00" HC="0.00" NOx="0.00" PMx="0.00" fuel="0.00" electricity="0.00" noise="0.00" route="!veh1!var#1" type="eVehicle" waiting="0.00" lane="-F_0" pos="46.40" speed="11.11" angle="180.00" x="6998.40" y="1703.60"/>
        <vehicle id="veh2" eclass="HBEFA3/PC_G_EU4" CO2="5982.09" CO="135.91" HC="0.76" NOx="2.61" PMx="0.12" fuel="2.57" electricity="0.00" noise="68.60" route="!veh2!var#1" type="normalVehicle" waiting="0.00" lane="-F_0" pos="18.00" speed="6.56" angle="180.00" x="6998.40" y="1732.00"/>
    </timestep>
    <timestep time="14.00">
        <vehicle id="veh0" eclass="HBEFA3/PC_G_EU4" CO2="2786.61" CO="1.98" HC="0.07" NOx="0.91" PMx="0.02" fuel="1.20" electricity="0.00" noise="64.99" route="!veh0!var#1" type="normalVehicle" waiting="0.00" lane="-D_0" pos="118.01" speed="14.09" angle="270.00" x="13881.99" y="-6998.40"/>
        <vehicle id="veh1" eclass="Zero/default" CO2="0.00" CO="0.00" HC="0.00" NOx="0.00" PMx="0.00" fuel="0.00" electricity="0.00" noise="0.00" route="!veh1!var#1" type="eVehicle" waiting="0.00" lane="-F_0" pos="58.43" speed="12.03" angle="180.00" x="6998.40" y="1691.57"/>
        <vehicle id="veh2" eclass="HBEFA3/PC_G_EU4" CO2="8007.02" CO="149.70" HC="0.87" NOx="3.50" PMx="0.17" fuel="3.44" electricity="0.00" noise="70.78" route="!veh2!var#1" type="normalVehicle" waiting="0.00" lane="-F_0" pos="27.06" speed="9.06" angle="180.00" x="6998.40" y="1722.94"/>
    </timestep>
    <timestep time="15.00">
        <vehicle id="veh0" eclass="HBEFA3/PC_G_EU4" CO2="0.00" CO="0.00" HC="0.00" NOx="0.00" PMx="0.00" fuel="0.00" electricity="0.00" noise="64.16" route="!veh0!var#1" type="normalVehicle" waiting="0.00" lane="-D_0" pos="131.92" speed="13.90" angle="270.00" x="13868.08" y="-6998.40"/>
        <vehicle id="veh1" eclass="Zero/default" CO2="0.00" CO="0.00" HC="0.00" NOx="0.00" PMx="0.00" fuel="0.00" electricity="0.00" noise="0.00" route="!veh1!var#1" type="eVehicle" waiting="0.00" lane="-F_0" pos="70.95" speed="12.52" angle="180.00" x="6998.40" y="1679.05"/>
        <vehicle id="veh2" eclass="HBEFA3/PC_G_EU4" CO2="9847.12" CO="164.65" HC="0.99" NOx="4.30" PMx="0.21" fuel="4.23" electricity="0.00" noise="72.12" route="!veh2!var#1" type="normalVehicle" waiting="0.00" lane="-F_0" pos="38.67" speed="11.60" angle="180.00" x="6998.40" y="1711.33"/>
    </timestep>
    <timestep time="16.00">
        <vehicle id="veh0" eclass="HBEFA3/PC_G_EU4" CO2="4441.04" CO="34.00" HC="0.26" NOx="1.68" PMx="0.07" fuel="1.91" electricity="0.00" noise="66.34" route="!veh0!var#1" type="normalVehicle" waiting="0.00" lane="-D_0" pos="146.37" speed="14.45" angle="270.00" x="13853.63" y="-6998.40"/>
        <vehicle id="veh1" eclass="Zero/default" CO2="0.00" CO="0.00" HC="0.00" NOx="0.00" PMx="0.00" fuel="0.00" electricity="0.00" noise="0.00" route="!veh1!var#1" type="eVehicle" waiting="0.00" lane="-F_0" pos="83.01" speed="12.06" angle="180.00" x="6998.40" y="1666.99"/>
        <vehicle id="veh2" eclass="HBEFA3/PC_G_EU4" CO2="9600.29" CO="144.98" HC="0.89" NOx="4.14" PMx="0.20" fuel="4.13" electricity="0.00" noise="71.13" route="!veh2!var#1" type="normalVehicle" waiting="0.00" lane="-F_0" pos="52.31" speed="13.65" angle="180.00" x="6998.40" y="1697.69"/>
    </timestep>
    <timestep time="17.00">
        <vehicle id="veh0" eclass="HBEFA3/PC_G_EU4" CO2="0.00" CO="0.00" HC="0.00" NOx="0.00" PMx="0.00" fuel="0.00" electricity="0.00" noise="63.98" route="!veh0!var#1" type="normalVehicle" waiting="0.00" lane="-D_0" pos="160.47" speed="14.10" angle="270.00" x="13839.53" y="-6998.40"/>
        <vehicle id="veh1" eclass="Zero/default" CO2="0.00" CO="0.00" HC="0.00" NOx="0.00" PMx="0.00" fuel="0.00" electricity="0.00" noise="0.00" route="!veh1!var#1" type="eVehicle" waiting="0.00" lane="-F_0" pos="95.34" speed="12.32" angle="180.00" x="6998.40" y="1654.66"/>
        <vehicle id="veh2" eclass="HBEFA3/PC_G_EU4" CO2="0.00" CO="0.00" HC="0.00" NOx="0.00" PMx="0.00" fuel="0.00" electricity="0.00" noise="62.90" route="!veh2!var#1" type="normalVehicle" waiting="0.00" lane="-F_0" pos="65.43" speed="13.12" angle="180.00" x="6998.40" y="1684.57"/>
    </timestep>
    <timestep time="18.00">
        <vehicle id="veh0" eclass="HBEFA3/PC_G_EU4" CO2="3557.27" CO="16.03" HC="0.15" NOx="1.27" PMx="0.04" fuel="1.53" electricity="0.00" noise="65.68" route="!veh0!var#1" type="normalVehicle" waiting="0.00" lane="-D_0" pos="174.88" speed="14.41" angle="270.00" x="13825.12" y="-6998.40"/>
        <vehicle id="veh1" eclass="Zero/default" CO2="0.00" CO="0.00" HC="0.00" NOx="0.00" PMx="0.00" fuel="0.00" electricity="0.00" noise="0.00" route="!veh1!var#1" type="eVehicle" waiting="0.00" lane="-F_0" pos="107.29" speed="11.96" angle="180.00" x="6998.40" y="1642.71"/>
        <vehicle id="veh2" eclass="HBEFA3/PC_G_EU4" CO2="2423.78" CO="0.37" HC="0.06" NOx="0.76" PMx="0.01" fuel="1.04" electricity="0.00" noise="64.16" route="!veh2!var#1" type="normalVehicle" waiting="0.00" lane="-F_0" pos="78.60" speed="13.16" angle="180.00" x="6998.40" y="1671.40"/>
    </timestep>
    <timestep time="19.00">
        <vehicle id="veh0" eclass="HBEFA3/PC_G_EU4" CO2="2841.37" CO="0.64" HC="0.07" NOx="0.93" PMx="0.02" fuel="1.22" electricity="0.00" noise="65.28" route="!veh0!var#1" type="normalVehicle" waiting="0.00" lane="-D_0" pos="189.40" speed="14.53" angle="270.00" x="13810.60" y="-6998.40"/>
        <vehicle id="veh1" eclass="Zero/default" CO2="0.00" CO="0.00" HC="0.00" NOx="0.00" PMx="0.00" fuel="0.00" electricity="0.00" noise="0.00" route="!veh1!var#1" type="eVehicle" waiting="0.00" lane="-F_0" pos="119.34" speed="12.05" angle="180.00" x="6998.40" y="1630.66"/>
        <vehicle id="veh2" eclass="HBEFA3/PC_G_EU4" CO2="5426.43" CO="56.86" HC="0.39" NOx="2.16" PMx="0.09" fuel="2.33" electricity="0.00" noise="66.97" route="!veh2!var#1" type="normalVehicle" waiting="0.00" lane="-F_0" pos="92.60" speed="14.01" angle="180.00" x="6998.40" y="1657.40"/>
    </timestep>
    <timestep time="20.00">
        <vehicle id="veh0" eclass="HBEFA3/PC_G_EU4" CO2="0.00" CO="0.00" HC="0.00" NOx="0.00" PMx="0.00" fuel="0.00" electricity="0.00" noise="63.43" route="!veh0!var#1" type="normalVehicle" waiting="0.00" lane="-D_0" pos="203.34" speed="13.94" angle="270.00" x="13796.66" y="-6998.40"/>
        <vehicle id="veh1" eclass="Zero/default" CO2="0.00" CO="0.00" HC="0.00" NOx="0.00" PMx="0.00" fuel="0.00" electricity="0.00" noise="0.00" route="!veh1!var#1" type="eVehicle" waiting="0.00" lane="-F_0" pos="131.96" speed="12.62" angle="180.00" x="6998.40" y="1618.04"/>
        <vehicle id="veh2" eclass="HBEFA3/PC_G_EU4" CO2="0.00" CO="0.00" HC="0.00" NOx="0.00" PMx="0.00" fuel="0.00" electricity="0.00" noise="63.91" route="!veh2!var#1" type="normalVehicle" waiting="0.00" lane="-F_0" pos="106.35" speed="13.75" angle="180.00" x="6998.40" y="1643.65"/>
    </timestep>
    <timestep time="21.00">
        <vehicle id="veh0" eclass="HBEFA3/PC_G_EU4" CO2="4531.28" CO="35.57" HC="0.27" NOx="1.72" PMx="0.07" fuel="1.95" electricity="0.00" noise="66.43" route="!veh0!var#1" type="normalVehicle" waiting="0.00" lane="-D_0" pos="217.84" speed="14.50" angle="270.00" x="13782.16" y="-6998.40"/>
        <vehicle id="veh1" eclass="Zero/default" CO2="0.00" CO="0.00" HC="0.00" NOx="0.00" PMx="0.00" fuel="0.00" electricity="0.00" noise="0.00" route="!veh1!var#1" type="eVehicle" waiting="0.00" lane="-F_0" pos="143.95" speed="11.99" angle="180.00" x="6998.40" y="1606.05"/>
        <vehicle id="veh2" eclass="HBEFA3/PC_G_EU4" CO2="0.00" CO="0.00" HC="0.00" NOx="0.00" PMx="0.00" fuel="0.00" electricity="0.00" noise="63.64" route="!veh2!var#1" type="normalVehicle" waiting="0.00" lane="-F_0" pos="119.82" speed="13.47" angle="180.00" x="6998.40" y="1630.18"/>
    </timestep>
    <timestep time="22.00">
        <vehicle id="veh0" eclass="HBEFA3/PC_G_EU4" CO2="0.00" CO="0.00" HC="0.00" NOx="0.00" PMx="0.00" fuel="0.00" electricity="0.00" noise="63.80" route="!veh0!var#1" type="normalVehicle" waiting="0.00" lane="-D_0" pos="231.91" speed="14.07" angle="270.00" x="13768.09" y="-6998.40"/>
        <vehicle id="veh1" eclass="Zero/default" CO2="0.00" CO="0.00" HC="0.00" NOx="0.00" PMx="0.00" fuel="0.00" electricity="0.00" noise="0.00" route="!veh1!var#1" type="eVehicle" waiting="0.00" lane="-F_0" pos="156.69" speed="12.74" angle="180.00" x="6998.40" y="1593.31"/>
        <vehicle id="veh2" eclass="HBEFA3/PC_G_EU4" CO2="0.00" CO="0.00" HC="0.00" NOx="0.00" PMx="0.00" fuel="0.00" electricity="0.00" noise="61.07" route="!veh2!var#1" type="normalVehicle" waiting="0.00" lane="-F_0" pos="132.05" speed="12.23" angle="180.00" x="6998.40" y="1617.95"/>
    </timestep>
    <timestep time="23.00">
        <vehicle id="veh0" eclass="HBEFA3/PC_G_EU4" CO2="0.00" CO="0.00" HC="0.00" NOx="0.00" PMx="0.00" fuel="0.00" electricity="0.00" noise="64.59" route="!veh0!var#1" type="normalVehicle" waiting="0.00" lane="-D_0" pos="245.94" speed="14.03" angle="270.00" x="13754.06" y="-6998.40"/>
        <vehicle id="veh1" eclass="Zero/default" CO2="0.00" CO="0.00" HC="0.00" NOx="0.00" PMx="0.00" fuel="0.00" electricity="0.00" noise="0.00" route="!veh1!var#1" type="eVehicle" waiting="0.00" lane="-F_0" pos="169.65" speed="12.96" angle="180.00" x="6998.40" y="1580.35"/>
        <vehicle id="veh2" eclass="HBEFA3/PC_G_EU4" CO2="8938.05" CO="129.00" HC="0.80" NOx="3.81" PMx="0.18" fuel="3.84" electricity="0.00" noise="70.37" route="!veh2!var#1" type="normalVehicle" waiting="0.00" lane="-F_0" pos="146.08" speed="14.03" angle="180.00" x="6998.40" y="1603.92"/>
    </timestep>
    <timestep time="24.00">
        <vehicle id="veh0" eclass="HBEFA3/PC_G_EU4" CO2="0.00" CO="0.00" HC="0.00" NOx="0.00" PMx="0.00" fuel="0.00" electricity="0.00" noise="64.49" route="!veh0!var#1" type="normalVehicle" waiting="0.00" lane="-D_0" pos="259.91" speed="13.97" angle="270.00" x="13740.09" y="-6998.40"/>
        <vehicle id="veh1" eclass="Zero/default" CO2="0.00" CO="0.00" HC="0.00" NOx="0.00" PMx="0.00" fuel="0.00" electricity="0.00" noise="0.00" route="!veh1!var#1" type="eVehicle" waiting="0.00" lane="-F_0" pos="182.55" speed="12.90" angle="180.00" x="6998.40" y="1567.45"/>
        <vehicle id="veh2" eclass="HBEFA3/PC_G_EU4" CO2="0.00" CO="0.00" HC="0.00" NOx="0.00" PMx="0.00" fuel="0.00" electricity="0.00" noise="62.73" route="!veh2!var#1" type="normalVehicle" waiting="0.00" lane="-F_0" pos="159.39" speed="13.31" angle="180.00" x="6998.40" y="1590.61"/>
        <vehicle id="veh3" eclass="Zero/default" CO2="0.00" CO="0.00" HC="0.00" NOx="0.00" PMx="0.00" fuel="0.00" electricity="0.00" noise="0.00" route="!veh3!var#1" type="eVehicle" waiting="0.00" lane="-H_0" pos="5.10" speed="0.00" angle="0.00" x="7001.60" y="-13994.90"/>
    </timestep>
    <timestep time="25.00">
        <vehicle id="veh0" eclass="HBEFA3/PC_G_EU4" CO2="3443.71" CO="14.53" HC="0.15" NOx="1.22" PMx="0.04" fuel="1.48" electricity="0.00" noise="65.53" route="!veh0!var#1" type="normalVehicle" waiting="0.00" lane="-D_0" pos="274.18" speed="14.26" angle="270.00" x="13725.82" y="-6998.40"/>
        <vehicle id="veh1" eclass="Zero/default" CO2="0.00" CO="0.00" HC="0.00" NOx="0.00" PMx="0.00" fuel="0.00" electricity="0.00" noise="0.00" route="!veh1!var#1" type="eVehicle" waiting="0.00" lane="-F_0" pos="195.03" speed="12.48" angle="180.00" x="6998.40" y="1554.97"/>
        <vehicle id="veh2" eclass="HBEFA3/PC_G_EU4" CO2="3441.78" CO="18.29" HC="0.16" NOx="1.23" PMx="0.04" fuel="1.48" electricity="0.00" noise="65.19" route="!veh2!var#1" type="normalVehicle" waiting="0.00" lane="-F_0" pos="173.02" speed="13.63" angle="180.00" x="6998.40" y="1576.98"/>
        <vehicle id="veh3" eclass="Zero/default" CO2="0.00" CO="0.00" HC="0.00" NOx="0.00" PMx="0.00" fuel="0.00" electricity="0.00" noise="0.00" route="!veh3!var#1" type="eVehicle" waiting="0.00" lane="-H_0" pos="7.08" speed="1.98" angle="0.00" x="7001.60" y="-13992.92"/>
    </timestep>
    <timestep time="26.00">
        <vehicle id="veh0" eclass="HBEFA3/PC_G_EU4" CO2="0.00" CO="0.00" HC="0.00" NOx="0.00" PMx="0.00" fuel="0.00" electricity="0.00" noise="62.78" route="!veh0!var#1" type="normalVehicle" waiting="0.00" lane="-D_0" pos="287.66" speed="13.48" angle="270.00" x="13712.34" y="-6998.40"/>
        <vehicle id="veh1" eclass="Zero/default" CO2="0.00" CO="0.00" HC="0.00" NOx="0.00" PMx="0.00" fuel="0.00" electricity="0.00" noise="0.00" route="!veh1!var#1" type="eVehicle" waiting="0.00" lane="-F_0" pos="207.02" speed="11.99" angle="180.00" x="6998.40" y="1542.98"/>
        <vehicle id="veh2" eclass="HBEFA3/PC_G_EU4" CO2="0.00" CO="0.00" HC="0.00" NOx="0.00" PMx="0.00" fuel="0.00" electricity="0.00" noise="60.69" route="!veh2!var#1" type="normalVehicle" waiting="0.00" lane="-F_0" pos="185.17" speed="12.14" angle="180.00" x="6998.40" y="1564.83"/>
        <vehicle id="veh3" eclass="Zero/default" CO2="0.00" CO="0.00" HC="0.00" NOx="0.00" PMx="0.00" fuel="0.00" electricity="0.00" noise="0.00" route="!veh3!var#1" type="eVehicle" waiting="0.00" lane="-H_0" pos="11.27" speed="4.19" angle="0.00" x="7001.60" y="-13988.73"/>
    </timestep>
    <timestep time="27.00">
        <vehicle id="veh0" eclass="HBEFA3/PC_G_EU4" CO2="4154.22" CO="30.81" HC="0.24" NOx="1.56" PMx="0.06" fuel="1.79" electricity="0.00" noise="65.91" route="!veh0!var#1" type="normalVehicle" waiting="0.00" lane="-D_0" pos="301.64" speed="13.98" angle="270.00" x="13698.36" y="-6998.40"/>
        <vehicle id="veh1" eclass="Zero/default" CO2="0.00" CO="0.00" HC="0.00" NOx="0.00" PMx="0.00" fuel="0.00" electricity="0.00" noise="0.00" route="!veh1!var#1" type="eVehicle" waiting="0.00" lane="-F_0" pos="219.13" speed="12.11" angle="180.00" x="6998.40" y="1530.87"/>
        <vehicle id="veh2" eclass="HBEFA3/PC_G_EU4" CO2="3437.17" CO="25.76" HC="0.20" NOx="1.26" PMx="0.04" fuel="1.48" electricity="0.00" noise="64.59" route="!veh2!var#1" type="normalVehicle" waiting="0.00" lane="-F_0" pos="197.68" speed="12.51" angle="180.00" x="6998.40" y="1552.32"/>
        <vehicle id="veh3" eclass="Zero/default" CO2="0.00" CO="0.00" HC="0.00" NOx="0.00" PMx="0.00" fuel="0.00" electricity="0.00" noise="0.00" route="!veh3!var#1" type="eVehicle" waiting="0.00" lane="-H_0" pos="16.79" speed="5.52" angle="0.00" x="7001.60" y="-13983.21"/>
    </timestep>
    <timestep time="28.00">
        <vehicle id="veh0" eclass="HBEFA3/PC_G_EU4" CO2="4470.44" CO="34.17" HC="0.26" NOx="1.69" PMx="0.07" fuel="1.92" electricity="0.00" noise="66.40" route="!veh0!var#1" type="normalVehicle" waiting="0.00" lane="-D_0" pos="316.17" speed="14.53" angle="270.00" x="13683.83" y="-6998.40"/>
        <vehicle id="veh1" eclass="Zero/default" CO2="0.00" CO="0.00" HC="0.00" NOx="0.00" PMx="0.00" fuel="0.00" electricity="0.00" noise="0.00" route="!veh1!var#1" type="eVehicle" waiting="0.00" lane="-F_0" pos="231.82" speed="12.69" angle="180.00" x="6998.40" y="1518.18"/>
        <vehicle id="veh2" eclass="HBEFA3/PC_G_EU4" CO2="0.00" CO="0.00" HC="0.00" NOx="0.00" PMx="0.00" fuel="0.00" electricity="0.00" noise="62.03" route="!veh2!var#1" type="normalVehicle" waiting="0.00" lane="-F_0" pos="209.67" speed="12.00" angle="180.00" x="6998.40" y="1540.33"/>
        <vehicle id="veh3" eclass="Zero/default" CO2="0.00" CO="0.00" HC="0.00" NOx="0.00" PMx="0.00" fuel="0.00" electricity="0.00" noise="0.00" route="!veh3!var#1" type="eVehicle" waiting="0.00" lane="-H_0" pos="24.12" speed="7.33" angle="0.00" x="7001.60" y="-13975.88"/>
    </timestep>
    <timestep time="29.00">
        <vehicle id="veh0" eclass="HBEFA3/PC_G_EU4" CO2="0.00" CO="0.00" HC="0.00" NOx="0.00" PMx="0.00" fuel="0.00" electricity="0.00" noise="63.29" route="!veh0!var#1" type="normalVehicle" waiting="0.00" lane="-D_0" pos="330.05" speed="13.88" angle="270.00" x="13669.95" y="-6998.40"/>
        <vehicle id="veh1" eclass="Zero/default" CO2="0.00" CO="0.00" HC="0.00" NOx="0.00" PMx="0.00" fuel="0.00" electricity="0.00" noise="0.00" route="!veh1!var#1" type="eVehicle" waiting="0.00" lane="-F_0" pos="243.72" speed="11.90" angle="180.00" x="6998.40" y="1506.28"/>
        <vehicle id="veh2" eclass="HBEFA3/PC_G_EU4" CO2="2367.21" CO="7.16" HC="0.08" NOx="0.76" PMx="0.01" fuel="1.02" electricity="0.00" noise="63.40" route="!veh2!var#1" type="normalVehicle" waiting="0.00" lane="-F_0" pos="221.72" speed="12.05" angle="180.00" x="6998.40" y="1528.28"/>
        <vehicle id="veh3" eclass="Zero/default" CO2="0.00" CO="0.00" HC="0.00" NOx="0.00" PMx="0.00" fuel="0.00" electricity="0.00" noise="0.00" route="!veh3!var#1" type="eVehicle" waiting="0.00" lane="-H_0" pos="32.89" speed="8.77" angle="0.00" x="7001.60" y="-13967.11"/>
    </timestep>
    <timestep time="30.00">
        <vehicle id="veh0" eclass="HBEFA3/PC_G_EU4" CO2="0.00" CO="0.00" HC="0.00" NOx="0.00" PMx="0.00" fuel="0.00" electricity="0.00" noise="63.53" route="!veh0!var#1" type="normalVehicle" waiting="0.00" lane="-D_0" pos="343.57" speed="13.52" angle="270.00" x="13656.43" y="-6998.40"/>
        <vehicle id="veh1" eclass="Zero/default" CO2="0.00" CO="0.00" HC="0.00" NOx="0.00" PMx="0.00" fuel="0.00" electricity="0.00" noise="0.00" route="!veh1!var#1" type="eVehicle" waiting="0.00" lane="-F_0" pos="256.56" speed="12.84" angle="180.00" x="6998.40" y="1493.44"/>
        <vehicle id="veh2" eclass="HBEFA3/PC_G_EU4" CO2="0.00" CO="0.00" HC="0.00" NOx="0.00" PMx="0.00" fuel="0.00" electricity="0.00" noise="62.82" route="!veh2!var#1" type="normalVehicle" waiting="0.00" lane="-F_0" pos="233.64" speed="11.91" angle="180.00" x="6998.40" y="1516.36"/>
        <vehicle id="veh3" eclass="Zero/default" CO2="0.00" CO="0.00" HC="0.00" NOx="0.00" PMx="0.00" fuel="0.00" electricity="0.00" noise="0.00" route="!veh3!var#1" type="eVehicle" waiting="0.00" lane="-H_0" pos="43.83" speed="10.93" angle="0.00" x="7001.60" y="-13956.17"/>
    </timestep>
    <timestep time="31.00">
        <vehicle id="veh0" eclass="HBEFA3/PC_G_EU4" CO2="5736.75" CO="60.90" HC="0.41" NOx="2.29" PMx="0.10" fuel="2.47" electricity="0.00" noise="67.36" route="!veh0!var#1" type="normalVehicle" waiting="0.00" lane="-D_0" pos="357.98" speed="14.41" angle="270.00" x="13642.02" y="-6998.40"/>
        <vehicle id="veh1" eclass="Zero/default" CO2="0.00" CO="0.00" HC="0.00" NOx="0.00" PMx="0.00" fuel="0.00" electricity="0.00" noise="0.00" route="!veh1!var#1" type="eVehicle" waiting="0.00" lane="-F_0" pos="268.87" speed="12.31" angle="180.00" x="6998.40" y="1481.13"/>
        <vehicle id="veh2" eclass="HBEFA3/PC_G_EU4" CO2="7946.11" CO="111.76" HC="0.70" NOx="3.36" PMx="0.16" fuel="3.42" electricity="0.00" noise="69.33" route="!veh2!var#1" type="normalVehicle" waiting="0.00" lane="-F_0" pos="247.15" speed="13.52" angle="180.00" x="6998.40" y="1502.85"/>
        <vehicle id="veh3" eclass="Zero/default" CO2="0.00" CO="0.00" HC="0.00" NOx="0.00" PMx="0.00" fuel="0.00" electricity="0.00" noise="0.00" route="!veh3!var#1" type="eVehicle" waiting="0.00" lane="-H_0" pos="57.23" speed="13.40" angle="0.00" x="7001.60" y="-13942.77"/>
    </timestep>
    <timestep time="32.00">
        <vehicle id="veh0" eclass="HBEFA3/PC_G_EU4" CO2="0.00" CO="0.00" HC="0.00" NOx="0.00" PMx="0.00" fuel="0.00" electricity="0.00" noise="64.86" route="!veh0!var#1" type="normalVehicle" waiting="0.00" lane="-D_0" pos="372.36" speed="14.39" angle="270.00" x="13627.64" y="-6998.40"/>
        <vehicle id="veh1" eclass="Zero/default" CO2="0.00" CO="0.00" HC="0.00" NOx="0.00" PMx="0.00" fuel="0.00" electricity="0.00" noise="0.00" route="!veh1!var#1" type="eVehicle" waiting="0.00" lane="-F_0" pos="280.71" speed="11.84" angle="180.00" x="6998.40" y="1469.29"/>
        <vehicle id="veh2" eclass="HBEFA3/PC_G_EU4" CO2="0.00" CO="0.00" HC="0.00" NOx="0.00" PMx="0.00" fuel="0.00" electricity="0.00" noise="62.42" route="!veh2!var#1" type="normalVehicle" waiting="0.00" lane="-F_0" pos="259.99" speed="12.84" angle="180.00" x="6998.40" y="1490.01"/>
        <vehicle id="veh3" eclass="Zero/default" CO2="0.00" CO="0.00" HC="0.00" NOx="0.00" PMx="0.00" fuel="0.00" electricity="0.00" noise="0.00" route="!veh3!var#1" type="eVehicle" waiting="0.00" lane="-H_0" pos="71.17" speed="13.95" angle="0.00" x="7001.60" y="-13928.83"/>
    </timestep>
    <timestep time="33.00">
        <vehicle id="veh0" eclass="HBEFA3/PC_G_EU4" CO2="0.00" CO="0.00" HC="0.00" NOx="0.00" PMx="0.00" fuel="0.00" electricity="0.00" noise="63.01" route="!veh0!var#1" type="normalVehicle" waiting="0.00" lane="-D_0" pos="386.03" speed="13.67" angle="270.00" x="13613.97" y="-6998.40"/>
        <vehicle id="veh1" eclass="Zero/default" CO2="0.00" CO="0.00" HC="0.00" NOx="0.00" PMx="0.00" fuel="0.00" electricity="0.00" noise="0.00" route="!veh1!var#1" type="eVehicle" waiting="0.00" lane="-F_0" pos="292.71" speed="12.00" angle="180.00" x="6998.40" y="1457.29"/>
        <vehicle id="veh2" eclass="HBEFA3/PC_G_EU4" CO2="0.00" CO="0.00" HC="0.00" NOx="0.00" PMx="0.00" fuel="0.00" electricity="0.00" noise="60.39" route="!veh2!var#1" type="normalVehicle" waiting="0.00" lane="-F_0" pos="271.55" speed="11.56" angle="180.00" x="6998.40" y="1478.45"/>
        <vehicle id="veh3" eclass="Zero/default" CO2="0.00" CO="0.00" HC="0.00" NOx="0.00" PMx="0.00" fuel="0.00" electricity="0.00" noise="0.00" route="!veh3!var#1" type="eVehicle" waiting="0.00" lane="-H_0" pos="85.86" speed="14.68" angle="0.00" x="7001.60" y="-13914.14"/>
    </timestep>
    <timestep time="34.00">
        <vehicle id="veh0" eclass="HBEFA3/PC_G_EU4" CO2="5529.85" CO="56.16" HC="0.39" NOx="2.19" PMx="0.09" fuel="2.38" electricity="0.00" noise="67.22" route="!veh0!var#1" type="normalVehicle" waiting="0.00" lane="-D_0" pos="400.52" speed="14.50" angle="270.00" x="13599.48" y="-6998.40"/>
        <vehicle id="veh1" eclass="Zero/default" CO2="0.00" CO="0.00" HC="0.00" NOx="0.00" PMx="0.00" fuel="0.00" electricity="0.00" noise="0.00" route="!veh1!var#1" type="eVehicle" waiting="0.00" lane="-F_0" pos="305.37" speed="12.66" angle="180.00" x="6998.40" y="1444.63"/>
        <vehicle id="veh2" eclass="HBEFA3/PC_G_EU4" CO2="3405.29" CO="29.31" HC="0.21" NOx="1.26" PMx="0.04" fuel="1.46" electricity="0.00" noise="64.28" route="!veh2!var#1" type="normalVehicle" waiting="0.00" lane="-F_0" pos="283.50" speed="11.95" angle="180.00" x="6998.40" y="1466.50"/>
        <vehicle id="veh3" eclass="Zero/default" CO2="0.00" CO="0.00" HC="0.00" NOx="0.00" PMx="0.00" fuel="0.00" electricity="0.00" noise="0.00" route="!veh3!var#1" type="eVehicle" waiting="0.00" lane="-H_0" pos="100.56" speed="14.70" angle="0.00" x="7001.60" y="-13899.44"/>
        <vehicle id="veh4" eclass="Zero/default" CO2="0.00" CO="0.00" HC="0.00" NOx="0.00" PMx="0.00" fuel="0.00" electricity="0.00" noise="0.00" route="!veh4!var#1" type="eVehicle" waiting="0.00" lane="-F_0" pos="5.10" speed="0.00" angle="180.00" x="6998.40" y="1744.90"/>
    </timestep>
    <timestep time="35.00">