<?xml version="1.0" encoding="UTF-8"?>

<!-- generated on 01/26/21 17:17:25 by Eclipse SUMO GUI Version 1.7.0
<configuration xmlns:xsi="http://www.w3.org/2001/XMLSchema-instance" xsi:noNamespaceSchemaLocation="http://sumo.dlr.de/xsd/sumoConfiguration.xsd">

    <input>
        <net-file value="case1.net.xml"/>
        <route-files value="case1.rou.xml"/>
        <additional-files value="case1.add.xml"/>
    </input>

    <output>
        <emission-output value="emissionOutput.xml"/>
        <tripinfo-output value="tripinfo.xml"/>
    </output>

    <processing>
        <ignore-route-errors value="true"/>
    </processing>

    <traci_server>
        <remote-port value="53348"/>
    </traci_server>

</configuration>
-->

<emission-export xmlns:xsi="http://www.w3.org/2001/XMLSchema-instance" xsi:noNamespaceSchemaLocation="http://sumo.dlr.de/xsd/emission_file.xsd">
    <timestep time="0.00"/>
    <timestep time="1.00"/>
    <timestep time="2.00"/>
    <timestep time="3.00"/>
    <timestep time="4.00"/>
    <timestep time="5.00"/>
    <timestep time="6.00"/>
    <timestep time="7.00"/>
    <timestep time="8.00"/>
    <timestep time="9.00"/>
    <timestep time="10.00">
        <vehicle id="veh1" eclass="Zero/default" CO2="0.00" CO="0.00" HC="0.00" NOx="0.00" PMx="0.00" fuel="0.00" electricity="0.00" noise="0.00" route="!veh1!var#1" type="eVehicle" waiting="0.00" lane="-gneE118_0" pos="5.10" speed="0.00" angle="180.00" x="-1.60" y="594.90"/>
    </timestep>
    <timestep time="11.00">
        <vehicle id="veh1" eclass="Zero/default" CO2="0.00" CO="0.00" HC="0.00" NOx="0.00" PMx="0.00" fuel="0.00" electricity="0.00" noise="0.00" route="!veh1!var#1" type="eVehicle" waiting="0.00" lane="-gneE118_0" pos="6.77" speed="1.67" angle="180.00" x="-1.60" y="593.23"/>
    </timestep>
    <timestep time="12.00">
        <vehicle id="veh1" eclass="Zero/default" CO2="0.00" CO="0.00" HC="0.00" NOx="0.00" PMx="0.00" fuel="0.00" electricity="0.00" noise="0.00" route="!veh1!var#1" type="eVehicle" waiting="0.00" lane="-gneE118_0" pos="10.32" speed="3.56" angle="180.00" x="-1.60" y="589.68"/>
    </timestep>
    <timestep time="13.00">
        <vehicle id="veh1" eclass="Zero/default" CO2="0.00" CO="0.00" HC="0.00" NOx="0.00" PMx="0.00" fuel="0.00" electricity="0.00" noise="0.00" route="!veh1!var#1" type="eVehicle" waiting="0.00" lane="-gneE118_0" pos="15.73" speed="5.41" angle="180.00" x="-1.60" y="584.27"/>
    </timestep>
    <timestep time="14.00">
        <vehicle id="veh1" eclass="Zero/default" CO2="0.00" CO="0.00" HC="0.00" NOx="0.00" PMx="0.00" fuel="0.00" electricity="0.00" noise="0.00" route="!veh1!var#1" type="eVehicle" waiting="0.00" lane="-gneE118_0" pos="22.61" speed="6.88" angle="180.00" x="-1.60" y="577.39"/>
    </timestep>
    <timestep time="15.00">
        <vehicle id="veh1" eclass="Zero/default" CO2="0.00" CO="0.00" HC="0.00" NOx="0.00" PMx="0.00" fuel="0.00" electricity="0.00" noise="0.00" route="!veh1!var#1" type="eVehicle" waiting="0.00" lane="-gneE118_0" pos="31.97" speed="9.36" angle="180.00" x="-1.60" y="568.03"/>
    </timestep>
    <timestep time="16.00">
        <vehicle id="veh1" eclass="Zero/default" CO2="0.00" CO="0.00" HC="0.00" NOx="0.00" PMx="0.00" fuel="0.00" electricity="0.00" noise="0.00" route="!veh1!var#1" type="eVehicle" waiting="0.00" lane="-gneE118_0" pos="43.24" speed="11.26" angle="180.00" x="-1.60" y="556.76"/>
    </timestep>
    <timestep time="17.00">
        <vehicle id="veh1" eclass="Zero/default" CO2="0.00" CO="0.00" HC="0.00" NOx="0.00" PMx="0.00" fuel="0.00" electricity="0.00" noise="0.00" route="!veh1!var#1" type="eVehicle" waiting="0.00" lane="-gneE118_0" pos="57.09" speed="13.86" angle="180.00" x="-1.60" y="542.91"/>
    </timestep>
    <timestep time="18.00">
        <vehicle id="veh1" eclass="Zero/default" CO2="0.00" CO="0.00" HC="0.00" NOx="0.00" PMx="0.00" fuel="0.00" electricity="0.00" noise="0.00" route="!veh1!var#1" type="eVehicle" waiting="0.00" lane="-gneE118_0" pos="71.73" speed="14.63" angle="180.00" x="-1.60" y="528.27"/>
    </timestep>
    <timestep time="19.00">
        <vehicle id="veh1" eclass="Zero/default" CO2="0.00" CO="0.00" HC="0.00" NOx="0.00" PMx="0.00" fuel="0.00" electricity="0.00" noise="0.00" route="!veh1!var#1" type="eVehicle" waiting="0.00" lane="-gneE118_0" pos="85.48" speed="13.75" angle="180.00" x="-1.60" y="514.52"/>
    </timestep>
    <timestep time="20.00">
        <vehicle id="veh1" eclass="Zero/default" CO2="0.00" CO="0.00" HC="0.00" NOx="0.00" PMx="0.00" fuel="0.00" electricity="0.00" noise="0.00" route="!veh1!var#1" type="eVehicle" waiting="0.00" lane=":gneJ65_1_0" pos="6.97" speed="14.29" angle="180.00" x="-1.60" y="500.23"/>
    </timestep>
    <timestep time="21.00">
        <vehicle id="veh1" eclass="Zero/default" CO2="0.00" CO="0.00" HC="0.00" NOx="0.00" PMx="0.00" fuel="0.00" electricity="0.00" noise="0.00" route="!veh1!var#1" type="eVehicle" waiting="0.00" lane="gneE107_0" pos="6.20" speed="13.64" angle="180.00" x="-1.60" y="486.60"/>
    </timestep>
    <timestep time="22.00">
        <vehicle id="veh1" eclass="Zero/default" CO2="0.00" CO="0.00" HC="0.00" NOx="0.00" PMx="0.00" fuel="0.00" electricity="0.00" noise="0.00" route="!veh1!var#1" type="eVehicle" waiting="0.00" lane="gneE107_0" pos="19.87" speed="13.67" angle="180.00" x="-1.60" y="472.93"/>
    </timestep>
    <timestep time="23.00">
        <vehicle id="veh1" eclass="Zero/default" CO2="0.00" CO="0.00" HC="0.00" NOx="0.00" PMx="0.00" fuel="0.00" electricity="0.00" noise="0.00" route="!veh1!var#1" type="eVehicle" waiting="0.00" lane="gneE107_0" pos="33.40" speed="13.53" angle="180.00" x="-1.60" y="459.40"/>
    </timestep>
    <timestep time="24.00">
        <vehicle id="veh1" eclass="Zero/default" CO2="0.00" CO="0.00" HC="0.00" NOx="0.00" PMx="0.00" fuel="0.00" electricity="0.00" noise="0.00" route="!veh1!var#1" type="eVehicle" waiting="0.00" lane="gneE107_0" pos="47.56" speed="14.17" angle="180.00" x="-1.60" y="445.24"/>
    </timestep>
    <timestep time="25.00">
        <vehicle id="veh1" eclass="Zero/default" CO2="0.00" CO="0.00" HC="0.00" NOx="0.00" PMx="0.00" fuel="0.00" electricity="0.00" noise="0.00" route="!veh1!var#1" type="eVehicle" waiting="0.00" lane="gneE107_0" pos="61.25" speed="13.69" angle="180.00" x="-1.60" y="431.55"/>
    </timestep>
    <timestep time="26.00">
        <vehicle id="veh1" eclass="Zero/default" CO2="0.00" CO="0.00" HC="0.00" NOx="0.00" PMx="0.00" fuel="0.00" electricity="0.00" noise="0.00" route="!veh1!var#1" type="eVehicle" waiting="0.00" lane="gneE107_0" pos="75.10" speed="13.85" angle="180.00" x="-1.60" y="417.70"/>
    </timestep>
    <timestep time="27.00">
        <vehicle id="veh1" eclass="Zero/default" CO2="0.00" CO="0.00" HC="0.00" NOx="0.00" PMx="0.00" fuel="0.00" electricity="0.00" noise="0.00" route="!veh1!var#1" type="eVehicle" waiting="0.00" lane=":gneJ56_1_0" pos="3.36" speed="13.86" angle="180.00" x="-1.60" y="403.84"/>
    </timestep>
    <timestep time="28.00">
        <vehicle id="veh1" eclass="Zero/default" CO2="0.00" CO="0.00" HC="0.00" NOx="0.00" PMx="0.00" fuel="0.00" electricity="0.00" noise="0.00" route="!veh1!var#1" type="eVehicle" waiting="0.00" lane="gneE91_0" pos="3.42" speed="14.46" angle="180.00" x="-1.60" y="389.38"/>
    </timestep>
    <timestep time="29.00">
        <vehicle id="veh1" eclass="Zero/default" CO2="0.00" CO="0.00" HC="0.00" NOx="0.00" PMx="0.00" fuel="0.00" electricity="0.00" noise="0.00" route="!veh1!var#1" type="eVehicle" waiting="0.00" lane="gneE91_0" pos="18.04" speed="14.62" angle="180.00" x="-1.60" y="374.76"/>
    </timestep>
    <timestep time="30.00">
        <vehicle id="veh1" eclass="Zero/default" CO2="0.00" CO="0.00" HC="0.00" NOx="0.00" PMx="0.00" fuel="0.00" electricity="0.00" noise="0.00" route="!veh1!var#1" type="eVehicle" waiting="0.00" lane="gneE91_0" pos="32.03" speed="13.99" angle="180.00" x="-1.60" y="360.77"/>
    </timestep>
    <timestep time="31.00">
        <vehicle id="veh1" eclass="Zero/default" CO2="0.00" CO="0.00" HC="0.00" NOx="0.00" PMx="0.00" fuel="0.00" electricity="0.00" noise="0.00" route="!veh1!var#1" type="eVehicle" waiting="0.00" lane="gneE91_0" pos="46.70" speed="14.67" angle="180.00" x="-1.60" y="346.10"/>
    </timestep>
    <timestep time="32.00">
        <vehicle id="veh1" eclass="Zero/default" CO2="0.00" CO="0.00" HC="0.00" NOx="0.00" PMx="0.00" fuel="0.00" electricity="0.00" noise="0.00" route="!veh1!var#1" type="eVehicle" waiting="0.00" lane="gneE91_0" pos="61.03" speed="14.34" angle="180.00" x="-1.60" y="331.77"/>
    </timestep>
    <timestep time="33.00">
        <vehicle id="veh1" eclass="Zero/default" CO2="0.00" CO="0.00" HC="0.00" NOx="0.00" PMx="0.00" fuel="0.00" electricity="0.00" noise="0.00" route="!veh1!var#1" type="eVehicle" waiting="0.00" lane="gneE91_0" pos="75.59" speed="14.56" angle="180.00" x="-1.60" y="317.21"/>
    </timestep>
    <timestep time="34.00">
        <vehicle id="veh1" eclass="Zero/default" CO2="0.00" CO="0.00" HC="0.00" NOx="0.00" PMx="0.00" fuel="0.00" electricity="0.00" noise="0.00" route="!veh1!var#1" type="eVehicle" waiting="0.00" lane=":gneJ7_1_0" pos="4.36" speed="14.37" angle="180.00" x="-1.60" y="302.84"/>
    </timestep>
    <timestep time="35.00">
        <vehicle id="veh1" eclass="Zero/default" CO2="0.00" CO="0.00" HC="0.00" NOx="0.00" PMx="0.00" fuel="0.00" electricity="0.00" noise="0.00" route="!veh1!var#1" type="eVehicle" waiting="0.00" lane="-gneE5_0" pos="3.97" speed="14.01" angle="180.00" x="-1.60" y="288.83"/>
    </timestep>
    <timestep time="36.00">
        <vehicle id="veh1" eclass="Zero/default" CO2="0.00" CO="0.00" HC="0.00" NOx="0.00" PMx="0.00" fuel="0.00" electricity="0.00" noise="0.00" route="!veh1!var#1" type="eVehicle" waiting="0.00" lane="-gneE5_0" pos="18.40" speed="14.42" angle="180.00" x="-1.60" y="274.40"/>
    </timestep>
    <timestep time="37.00">
        <vehicle id="veh1" eclass="Zero/default" CO2="0.00" CO="0.00" HC="0.00" NOx="0.00" PMx="0.00" fuel="0.00" electricity="0.00" noise="0.00" route="!veh1!var#1" type="eVehicle" waiting="0.00" lane="-gneE5_0" pos="32.78" speed="14.38" angle="180.00" x="-1.60" y="260.02"/>
    </timestep>
    <timestep time="38.00">
        <vehicle id="veh1" eclass="Zero/default" CO2="0.00" CO="0.00" HC="0.00" NOx="0.00" PMx="0.00" fuel="0.00" electricity="0.00" noise="0.00" route="!veh1!var#1" type="eVehicle" waiting="0.00" lane="-gneE5_0" pos="47.03" speed="14.26" angle="180.00" x="-1.60" y="245.77"/>
    </timestep>
    <timestep time="39.00">
        <vehicle id="veh1" eclass="Zero/default" CO2="0.00" CO="0.00" HC="0.00" NOx="0.00" PMx="0.00" fuel="0.00" electricity="0.00" noise="0.00" route="!veh1!var#1" type="eVehicle" waiting="0.00" lane="-gneE5_0" pos="61.08" speed="14.05" angle="180.00" x="-1.60" y="231.72"/>
    </timestep>
    <timestep time="40.00">
        <vehicle id="veh1" eclass="Zero/default" CO2="0.00" CO="0.00" HC="0.00" NOx="0.00" PMx="0.00" fuel="0.00" electricity="0.00" noise="0.00" route="!veh1!var#1" type="eVehicle" waiting="0.00" lane="-gneE5_0" pos="75.51" speed="14.43" angle="180.00" x="-1.60" y="217.29"/>
    </timestep>
    <timestep time="41.00">
        <vehicle id="veh1" eclass="Zero/default" CO2="0.00" CO="0.00" HC="0.00" NOx="0.00" PMx="0.00" fuel="0.00" electricity="0.00" noise="0.00" route="!veh1!var#1" type="eVehicle" waiting="0.00" lane=":gneJ4_1_0" pos="4.48" speed="14.57" angle="180.00" x="-1.60" y="202.72"/>
    </timestep>
    <timestep time="42.00">
        <vehicle id="veh1" eclass="Zero/default" CO2="0.00" CO="0.00" HC="0.00" NOx="0.00" PMx="0.00" fuel="0.00" electricity="0.00" noise="0.00" route="!veh1!var#1" type="eVehicle" waiting="0.00" lane="-gneE2_0" pos="4.53" speed="14.44" angle="180.00" x="-1.60" y="188.27"/>
    </timestep>
    <timestep time="43.00">
        <vehicle id="veh1" eclass="Zero/default" CO2="0.00" CO="0.00" HC="0.00" NOx="0.00" PMx="0.00" fuel="0.00" electricity="0.00" noise="0.00" route="!veh1!var#1" type="eVehicle" waiting="0.00" lane="-gneE2_0" pos="18.09" speed="13.56" angle="180.00" x="-1.60" y="174.71"/>
    </timestep>
    <timestep time="44.00">
        <vehicle id="veh1" eclass="Zero/default" CO2="0.00" CO="0.00" HC="0.00" NOx="0.00" PMx="0.00" fuel="0.00" electricity="0.00" noise="0.00" route="!veh1!var#1" type="eVehicle" waiting="0.00" lane="-gneE2_0" pos="32.67" speed="14.57" angle="180.00" x="-1.60" y="160.13"/>
    </timestep>
    <timestep time="45.00">
        <vehicle id="veh1" eclass="Zero/default" CO2="0.00" CO="0.00" HC="0.00" NOx="0.00" PMx="0.00" fuel="0.00" electricity="0.00" noise="0.00" route="!veh1!var#1" type="eVehicle" waiting="0.00" lane="-gneE2_0" pos="46.65" speed="13.98" angle="180.00" x="-1.60" y="146.15"/>
    </timestep>
    <timestep time="46.00">
        <vehicle id="veh1" eclass="Zero/default" CO2="0.00" CO="0.00" HC="0.00" NOx="0.00" PMx="0.00" fuel="0.00" electricity="0.00" noise="0.00" route="!veh1!var#1" type="eVehicle" waiting="0.00" lane="-gneE2_0" pos="61.08" speed="14.43" angle="180.00" x="-1.60" y="131.72"/>
    </timestep>
    <timestep time="47.00">
        <vehicle id="veh1" eclass="Zero/default" CO2="0.00" CO="0.00" HC="0.00" NOx="0.00" PMx="0.00" fuel="0.00" electricity="0.00" noise="0.00" route="!veh1!var#1" type="eVehicle" waiting="0.00" lane="-gneE2_0" pos="75.30" speed="14.22" angle="180.00" x="-1.60" y="117.50"/>
    </timestep>
    <timestep time="48.00">
        <vehicle id="veh1" eclass="Zero/default" CO2="0.00" CO="0.00" HC="0.00" NOx="0.00" PMx="0.00" fuel="0.00" electricity="0.00" noise="0.00" route="!veh1!var#1" type="eVehicle" waiting="0.00" lane=":gneJ3_1_0" pos="3.26" speed="13.56" angle="180.00" x="-1.60" y="103.94"/>
    </timestep>
    <timestep time="49.00">
        <vehicle id="veh1" eclass="Zero/default" CO2="0.00" CO="0.00" HC="0.00" NOx="0.00" PMx="0.00" fuel="0.00" electricity="0.00" noise="0.00" route="!veh1!var#1" type="eVehicle" waiting="0.00" lane="-gneE1_0" pos="2.77" speed="13.91" angle="180.00" x="-1.60" y="90.03"/>
    </timestep>
    <timestep time="50.00">
        <vehicle id="veh1" eclass="Zero/default" CO2="0.00" CO="0.00" HC="0.00" NOx="0.00" PMx="0.00" fuel="0.00" electricity="0.00" noise="0.00" route="!veh1!var#1" type="eVehicle" waiting="0.00" lane="-gneE1_0" pos="17.07" speed="14.30" angle="180.00" x="-1.60" y="75.73"/>
    </timestep>
    <timestep time="51.00">
        <vehicle id="veh1" eclass="Zero/default" CO2="0.00" CO="0.00" HC="0.00" NOx="0.00" PMx="0.00" fuel="0.00" electricity="0.00" noise="0.00" route="!veh1!var#1" type="eVehicle" waiting="0.00" lane="-gneE1_0" pos="31.64" speed="14.56" angle="180.00" x="-1.60" y="61.16"/>
    </timestep>
    <timestep time="52.00">
        <vehicle id="veh1" eclass="Zero/default" CO2="0.00" CO="0.00" HC="0.00" NOx="0.00" PMx="0.00" fuel="0.00" electricity="0.00" noise="0.00" route="!veh1!var#1" type="eVehicle" waiting="0.00" lane="-gneE1_0" pos="45.94" speed="14.30" angle="180.00" x="-1.60" y="46.86"/>
    </timestep>
    <timestep time="53.00">
        <vehicle id="veh1" eclass="Zero/default" CO2="0.00" CO="0.00" HC="0.00" NOx="0.00" PMx="0.00" fuel="0.00" electricity="0.00" noise="0.00" route="!veh1!var#1" type="eVehicle" waiting="0.00" lane="-gneE1_0" pos="59.45" speed="13.52" angle="180.00" x="-1.60" y="33.35"/>
    </timestep>
    <timestep time="54.00">
        <vehicle id="veh1" eclass="Zero/default" CO2="0.00" CO="0.00" HC="0.00" NOx="0.00" PMx="0.00" fuel="0.00" electricity="0.00" noise="0.00" route="!veh1!var#1" type="eVehicle" waiting="0.00" lane="-gneE1_0" pos="72.97" speed="13.52" angle="180.00" x="-1.60" y="19.83"/>
    </timestep>
    <timestep time="55.00">
        <vehicle id="veh1" eclass="Zero/default" CO2="0.00" CO="0.00" HC="0.00" NOx="0.00" PMx="0.00" fuel="0.00" electricity="0.00" noise="0.00" route="!veh1!var#1" type="eVehicle" waiting="0.00" lane=":gneJ1_1_0" pos="1.54" speed="14.17" angle="180.00" x="-1.60" y="5.66"/>
    </timestep>
    <timestep time="56.00">
        <vehicle id="veh1" eclass="Zero/default" CO2="0.00" CO="0.00" HC="0.00" NOx="0.00" PMx="0.00" fuel="0.00" electricity="0.00" noise="0.00" route="!veh1!var#1" type="eVehicle" waiting="0.00" lane="gneE62_0" pos="1.86" speed="14.72" angle="180.00" x="-1.60" y="-9.06"/>
    </timestep>
    <timestep time="57.00">
        <vehicle id="veh1" eclass="Zero/default" CO2="0.00" CO="0.00" HC="0.00" NOx="0.00" PMx="0.00" fuel="0.00" electricity="0.00" noise="0.00" route="!veh1!var#1" type="eVehicle" waiting="0.00" lane="gneE62_0" pos="15.90" speed="14.04" angle="180.00" x="-1.60" y="-23.10"/>
    </timestep>
    <timestep time="58.00">
        <vehicle id="veh1" eclass="Zero/default" CO2="0.00" CO="0.00" HC="0.00" NOx="0.00" PMx="0.00" fuel="0.00" electricity="0.00" noise="0.00" route="!veh1!var#1" type="eVehicle" waiting="0.00" lane="gneE62_0" pos="29.75" speed="13.85" angle="180.00" x="-1.60" y="-36.95"/>
    </timestep>
    <timestep time="59.00">
        <vehicle id="veh1" eclass="Zero/default" CO2="0.00" CO="0.00" HC="0.00" NOx="0.00" PMx="0.00" fuel="0.00" electricity="0.00" noise="0.00" route="!veh1!var#1" type="eVehicle" waiting="0.00" lane="gneE62_0" pos="43.87" speed="14.13" angle="180.00" x="-1.60" y="-51.07"/>
    </timestep>
    <timestep time="60.00">
        <vehicle id="veh1" eclass="Zero/default" CO2="0.00" CO="0.00" HC="0.00" NOx="0.00" PMx="0.00" fuel="0.00" electricity="0.00" noise="0.00" route="!veh1!var#1" type="eVehicle" waiting="0.00" lane="gneE62_0" pos="58.44" speed="14.56" angle="180.00" x="-1.60" y="-65.64"/>
    </timestep>
    <timestep time="61.00">
        <vehicle id="veh1" eclass="Zero/default" CO2="0.00" CO="0.00" HC="0.00" NOx="0.00" PMx="0.00" fuel="0.00" electricity="0.00" noise="0.00" route="!veh1!var#1" type="eVehicle" waiting="0.00" lane="gneE62_0" pos="72.76" speed="14.32" angle="180.00" x="-1.60" y="-79.96"/>
    </timestep>
    <timestep time="62.00">
        <vehicle id="veh1" eclass="Zero/default" CO2="0.00" CO="0.00" HC="0.00" NOx="0.00" PMx="0.00" fuel="0.00" electricity="0.00" noise="0.00" route="!veh1!var#1" type="eVehicle" waiting="0.00" lane=":gneJ39_1_0" pos="1.16" speed="14.01" angle="180.00" x="-1.60" y="-93.96"/>
    </timestep>
    <timestep time="63.00">
        <vehicle id="veh1" eclass="Zero/default" CO2="0.00" CO="0.00" HC="0.00" NOx="0.00" PMx="0.00" fuel="0.00" electricity="0.00" noise="0.00" route="!veh1!var#1" type="eVehicle" waiting="0.00" lane="gneE63_0" pos="0.92" speed="14.15" angle="180.00" x="-1.60" y="-108.12"/>
    </timestep>
    <timestep time="64.00">
        <vehicle id="veh1" eclass="Zero/default" CO2="0.00" CO="0.00" HC="0.00" NOx="0.00" PMx="0.00" fuel="0.00" electricity="0.00" noise="0.00" route="!veh1!var#1" type="eVehicle" waiting="0.00" lane="gneE63_0" pos="15.02" speed="14.10" angle="180.00" x="-1.60" y="-122.22"/>
    </timestep>
    <timestep time="65.00">
        <vehicle id="veh1" eclass="Zero/default" CO2="0.00" CO="0.00" HC="0.00" NOx="0.00" PMx="0.00" fuel="0.00" electricity="0.00" noise="0.00" route="!veh1!var#1" type="eVehicle" waiting="0.00" lane="gneE63_0" pos="29.35" speed="14.33" angle="180.00" x="-1.60" y="-136.55"/>
    </timestep>
    <timestep time="66.00">
        <vehicle id="veh1" eclass="Zero/default" CO2="0.00" CO="0.00" HC="0.00" NOx="0.00" PMx="0.00" fuel="0.00" electricity="0.00" noise="0.00" route="!veh1!var#1" type="eVehicle" waiting="0.00" lane="gneE63_0" pos="42.81" speed="13.45" angle="180.00" x="-1.60" y="-150.01"/>
    </timestep>
    <timestep time="67.00">
        <vehicle id="veh1" eclass="Zero/default" CO2="0.00" CO="0.00" HC="0.00" NOx="0.00" PMx="0.00" fuel="0.00" electricity="0.00" noise="0.00" route="!veh1!var#1" type="eVehicle" waiting="0.00" lane="gneE63_0" pos="56.74" speed="13.93" angle="180.00" x="-1.60" y="-163.94"/>
    </timestep>
    <timestep time="68.00">
        <vehicle id="veh1" eclass="Zero/default" CO2="0.00" CO="0.00" HC="0.00" NOx="0.00" PMx="0.00" fuel="0.00" electricity="0.00" noise="0.00" route="!veh1!var#1" type="eVehicle" waiting="0.00" lane="gneE63_0" pos="70.30" speed="13.56" angle="180.00" x="-1.60" y="-177.50"/>
    </timestep>
    <timestep time="69.00">
        <vehicle id="veh1" eclass="Zero/default" CO2="0.00" CO="0.00" HC="0.00" NOx="0.00" PMx="0.00" fuel="0.00" electricity="0.00" noise="0.00" route="!veh1!var#1" type="eVehicle" waiting="0.00" lane="gneE63_0" pos="81.41" speed="11.11" angle="180.00" x="-1.60" y="-188.61"/>
    </timestep>
    <timestep time="70.00">
        <vehicle id="veh1" eclass="Zero/default" CO2="0.00" CO="0.00" HC="0.00" NOx="0.00" PMx="0.00" fuel="0.00" electricity="0.00" noise="0.00" route="!veh1!var#1" type="eVehicle" waiting="0.00" lane=":gneJ40_2_0" pos="2.94" speed="7.13" angle="175.23" x="-1.18" y="-195.71"/>
        <vehicle id="veh2" eclass="HBEFA3/PC_G_EU4" CO2="2624.72" CO="164.78" HC="0.81" NOx="1.20" PMx="0.07" fuel="1.13" electricity="0.00" noise="55.94" route="!veh2!var#1" type="normalVehicle" waiting="0.00" lane="gneE104_0" pos="5.10" speed="0.00" angle="180.00" x="-201.60" y="491.70"/>
    </timestep>
    <timestep time="71.00">
        <vehicle id="veh1" eclass="Zero/default" CO2="0.00" CO="0.00" HC="0.00" NOx="0.00" PMx="0.00" fuel="0.00" electricity="0.00" noise="0.00" route="!veh1!var#1" type="eVehicle" waiting="0.00" lane=":gneJ40_12_0" pos="5.08" speed="8.07" angle="123.77" x="4.05" y="-201.15"/>
        <vehicle id="veh2" eclass="HBEFA3/PC_G_EU4" CO2="3518.08" CO="148.19" HC="0.76" NOx="1.57" PMx="0.08" fuel="1.51" electricity="0.00" noise="65.90" route="!veh2!var#1" type="normalVehicle" waiting="0.00" lane="gneE104_0" pos="7.18" speed="2.08" angle="180.00" x="-201.60" y="489.62"/>
    </timestep>
    <timestep time="72.00">
        <vehicle id="veh1" eclass="Zero/default" CO2="0.00" CO="0.00" HC="0.00" NOx="0.00" PMx="0.00" fuel="0.00" electricity="0.00" noise="0.00" route="!veh1!var#1" type="eVehicle" waiting="0.00" lane="gneE64_0" pos="5.17" speed="8.35" angle="90.00" x="12.37" y="-201.60"/>
        <vehicle id="veh2" eclass="HBEFA3/PC_G_EU4" CO2="5322.22" CO="147.02" HC="0.80" NOx="2.35" PMx="0.11" fuel="2.29" electricity="0.00" noise="69.14" route="!veh2!var#1" type="normalVehicle" waiting="0.00" lane="gneE104_0" pos="11.84" speed="4.66" angle="180.00" x="-201.60" y="484.96"/>
    </timestep>
    <timestep time="73.00">
        <vehicle id="veh1" eclass="Zero/default" CO2="0.00" CO="0.00" HC="0.00" NOx="0.00" PMx="0.00" fuel="0.00" electricity="0.00" noise="0.00" route="!veh1!var#1" type="eVehicle" waiting="0.00" lane="gneE64_0" pos="14.89" speed="9.72" angle="90.00" x="22.09" y="-201.60"/>
        <vehicle id="veh2" eclass="HBEFA3/PC_G_EU4" CO2="4267.73" CO="107.30" HC="0.59" NOx="1.82" PMx="0.08" fuel="1.83" electricity="0.00" noise="64.50" route="!veh2!var#1" type="normalVehicle" waiting="0.00" lane="gneE104_0" pos="17.86" speed="6.02" angle="180.00" x="-201.60" y="478.94"/>
    </timestep>
    <timestep time="74.00">
        <vehicle id="veh1" eclass="Zero/default" CO2="0.00" CO="0.00" HC="0.00" NOx="0.00" PMx="0.00" fuel="0.00" electricity="0.00" noise="0.00" route="!veh1!var#1" type="eVehicle" waiting="0.00" lane="gneE64_0" pos="25.94" speed="11.05" angle="90.00" x="33.14" y="-201.60"/>
        <vehicle id="veh2" eclass="HBEFA3/PC_G_EU4" CO2="6797.18" CO="133.62" HC="0.77" NOx="2.95" PMx="0.14" fuel="2.92" electricity="0.00" noise="69.08" route="!veh2!var#1" type="normalVehicle" waiting="0.00" lane="gneE104_0" pos="26.08" speed="8.22" angle="180.00" x="-201.60" y="470.72"/>
    </timestep>
    <timestep time="75.00">
        <vehicle id="veh1" eclass="Zero/default" CO2="0.00" CO="0.00" HC="0.00" NOx="0.00" PMx="0.00" fuel="0.00" electricity="0.00" noise="0.00" route="!veh1!var#1" type="eVehicle" waiting="0.00" lane="gneE64_0" pos="38.43" speed="12.49" angle="90.00" x="45.63" y="-201.60"/>
        <vehicle id="veh2" eclass="HBEFA3/PC_G_EU4" CO2="8332.35" CO="142.85" HC="0.85" NOx="3.62" PMx="0.17" fuel="3.58" electricity="0.00" noise="70.47" route="!veh2!var#1" type="normalVehicle" waiting="0.00" lane="gneE104_0" pos="36.57" speed="10.49" angle="180.00" x="-201.60" y="460.23"/>
    </timestep>
    <timestep time="76.00">
        <vehicle id="veh1" eclass="Zero/default" CO2="0.00" CO="0.00" HC="0.00" NOx="0.00" PMx="0.00" fuel="0.00" electricity="0.00" noise="0.00" route="!veh1!var#1" type="eVehicle" waiting="0.00" lane="gneE64_0" pos="53.10" speed="14.67" angle="90.00" x="60.30" y="-201.60"/>
        <vehicle id="veh2" eclass="HBEFA3/PC_G_EU4" CO2="7206.92" CO="106.57" HC="0.66" NOx="3.05" PMx="0.14" fuel="3.10" electricity="0.00" noise="68.53" route="!veh2!var#1" type="normalVehicle" waiting="0.00" lane="gneE104_0" pos="48.65" speed="12.08" angle="180.00" x="-201.60" y="448.15"/>
    </timestep>
    <timestep time="77.00">
        <vehicle id="veh1" eclass="Zero/default" CO2="0.00" CO="0.00" HC="0.00" NOx="0.00" PMx="0.00" fuel="0.00" electricity="0.00" noise="0.00" route="!veh1!var#1" type="eVehicle" waiting="0.00" lane="gneE64_0" pos="67.65" speed="14.55" angle="90.00" x="74.85" y="-201.60"/>
        <vehicle id="veh2" eclass="HBEFA3/PC_G_EU4" CO2="3488.65" CO="27.14" HC="0.20" NOx="1.28" PMx="0.04" fuel="1.50" electricity="0.00" noise="64.62" route="!veh2!var#1" type="normalVehicle" waiting="0.00" lane="gneE104_0" pos="61.12" speed="12.47" angle="180.00" x="-201.60" y="435.68"/>
    </timestep>
    <timestep time="78.00">
        <vehicle id="veh1" eclass="Zero/default" CO2="0.00" CO="0.00" HC="0.00" NOx="0.00" PMx="0.00" fuel="0.00" electricity="0.00" noise="0.00" route="!veh1!var#1" type="eVehicle" waiting="0.00" lane="gneE64_0" pos="81.46" speed="13.81" angle="90.00" x="88.66" y="-201.60"/>
        <vehicle id="veh2" eclass="HBEFA3/PC_G_EU4" CO2="0.00" CO="0.00" HC="0.00" NOx="0.00" PMx="0.00" fuel="0.00" electricity="0.00" noise="61.97" route="!veh2!var#1" type="normalVehicle" waiting="0.00" lane="gneE104_0" pos="73.06" speed="11.94" angle="180.00" x="-201.60" y="423.74"/>
    </timestep>
    <timestep time="79.00">
        <vehicle id="veh1" eclass="Zero/default" CO2="0.00" CO="0.00" HC="0.00" NOx="0.00" PMx="0.00" fuel="0.00" electricity="0.00" noise="0.00" route="!veh1!var#1" type="eVehicle" waiting="0.00" lane=":gneJ38_4_0" pos="9.48" speed="13.62" angle="90.00" x="102.28" y="-201.60"/>
        <vehicle id="veh2" eclass="HBEFA3/PC_G_EU4" CO2="2343.29" CO="7.12" HC="0.08" NOx="0.75" PMx="0.01" fuel="1.01" electricity="0.00" noise="63.34" route="!veh2!var#1" type="normalVehicle" waiting="0.00" lane="gneE104_0" pos="85.05" speed="11.99" angle="180.00" x="-201.60" y="411.75"/>
    </timestep>
    <timestep time="80.00">
        <vehicle id="veh1" eclass="Zero/default" CO2="0.00" CO="0.00" HC="0.00" NOx="0.00" PMx="0.00" fuel="0.00" electricity="0.00" noise="0.00" route="!veh1!var#1" type="eVehicle" waiting="0.00" lane="gneE60_0" pos="8.64" speed="13.56" angle="90.00" x="115.84" y="-201.60"/>
        <vehicle id="veh2" eclass="HBEFA3/PC_G_EU4" CO2="4546.55" CO="47.35" HC="0.32" NOx="1.78" PMx="0.07" fuel="1.95" electricity="0.00" noise="65.70" route="!veh2!var#1" type="normalVehicle" waiting="0.00" lane=":gneJ51_0_0" pos="8.14" speed="12.69" angle="180.00" x="-201.60" y="399.06"/>
    </timestep>
    <timestep time="81.00">
        <vehicle id="veh1" eclass="Zero/default" CO2="0.00" CO="0.00" HC="0.00" NOx="0.00" PMx="0.00" fuel="0.00" electricity="0.00" noise="0.00" route="!veh1!var#1" type="eVehicle" waiting="0.00" lane="gneE60_0" pos="22.65" speed="14.00" angle="90.00" x="129.85" y="-201.60"/>
        <vehicle id="veh2" eclass="HBEFA3/PC_G_EU4" CO2="2792.94" CO="10.12" HC="0.11" NOx="0.94" PMx="0.02" fuel="1.20" electricity="0.00" noise="64.24" route="!veh2!var#1" type="normalVehicle" waiting="0.00" lane="gneE80_0" pos="6.59" speed="12.85" angle="180.00" x="-201.60" y="386.21"/>
    </timestep>
    <timestep time="82.00">
        <vehicle id="veh1" eclass="Zero/default" CO2="0.00" CO="0.00" HC="0.00" NOx="0.00" PMx="0.00" fuel="0.00" electricity="0.00" noise="0.00" route="!veh1!var#1" type="eVehicle" waiting="0.00" lane="gneE60_0" pos="36.71" speed="14.06" angle="90.00" x="143.91" y="-201.60"/>
        <vehicle id="veh2" eclass="HBEFA3/PC_G_EU4" CO2="0.00" CO="0.00" HC="0.00" NOx="0.00" PMx="0.00" fuel="0.00" electricity="0.00" noise="62.52" route="!veh2!var#1" type="normalVehicle" waiting="0.00" lane="gneE80_0" pos="19.00" speed="12.41" angle="180.00" x="-201.60" y="373.80"/>
    </timestep>
    <timestep time="83.00">
        <vehicle id="veh1" eclass="Zero/default" CO2="0.00" CO="0.00" HC="0.00" NOx="0.00" PMx="0.00" fuel="0.00" electricity="0.00" noise="0.00" route="!veh1!var#1" type="eVehicle" waiting="0.00" lane="gneE60_0" pos="51.26" speed="14.55" angle="90.00" x="158.46" y="-201.60"/>
        <vehicle id="veh2" eclass="HBEFA3/PC_G_EU4" CO2="0.00" CO="0.00" HC="0.00" NOx="0.00" PMx="0.00" fuel="0.00" electricity="0.00" noise="62.62" route="!veh2!var#1" type="normalVehicle" waiting="0.00" lane="gneE80_0" pos="31.12" speed="12.12" angle="180.00" x="-201.60" y="361.68"/>
    </timestep>
    <timestep time="84.00">
        <vehicle id="veh1" eclass="Zero/default" CO2="0.00" CO="0.00" HC="0.00" NOx="0.00" PMx="0.00" fuel="0.00" electricity="0.00" noise="0.00" route="!veh1!var#1" type="eVehicle" waiting="0.00" lane="gneE60_0" pos="65.17" speed="13.91" angle="90.00" x="172.37" y="-201.60"/>
        <vehicle id="veh2" eclass="HBEFA3/PC_G_EU4" CO2="0.00" CO="0.00" HC="0.00" NOx="0.00" PMx="0.00" fuel="0.00" electricity="0.00" noise="62.17" route="!veh2!var#1" type="normalVehicle" waiting="0.00" lane="gneE80_0" pos="42.88" speed="11.76" angle="180.00" x="-201.60" y="349.92"/>
    </timestep>
    <timestep time="85.00">
        <vehicle id="veh1" eclass="Zero/default" CO2="0.00" CO="0.00" HC="0.00" NOx="0.00" PMx="0.00" fuel="0.00" electricity="0.00" noise="0.00" route="!veh1!var#1" type="eVehicle" waiting="0.00" lane="gneE60_0" pos="79.11" speed="13.94" angle="90.00" x="186.31" y="-201.60"/>